# Region       : all 
# Cells        : 31280
# Volume       : 3.20955384e+00
# Time         	volIntegrate(alpha.water)
0.00011976048  	6.64600297e-01
0.00026278378  	6.64600297e-01
0.0004329322   	6.64600297e-01
0.00063675582  	6.64600297e-01
0.00087879638  	6.64600297e-01
0.0011685116   	6.64600297e-01
0.0015109023   	6.64600297e-01
0.0019128392   	6.64600297e-01
0.0023888171   	6.64600297e-01
0.0029569198   	6.64600297e-01
0.003638643    	6.64600297e-01
0.0044177552   	6.64600297e-01
0.0053343579   	6.64600297e-01
0.0063819037   	6.64600297e-01
0.0076199125   	6.64600297e-01
0.0089954778   	6.64600296e-01
0.010567552    	6.64600295e-01
0.012139627    	6.64600293e-01
0.013711702    	6.64600290e-01
0.015283776    	6.64600286e-01
0.016855851    	6.64600282e-01
0.018427925    	6.64600277e-01
0.02           	6.64600271e-01
0.021818182    	6.64600261e-01
0.023838384    	6.64600246e-01
0.026147186    	6.64600246e-01
0.028917749    	6.64600246e-01
0.031688312    	6.64600246e-01
0.034458874    	6.64600246e-01
0.037229437    	6.64600246e-01
0.04           	6.64600246e-01
0.042857143    	6.64600246e-01
0.046285714    	6.64600246e-01
0.049714286    	6.64600245e-01
0.053142857    	6.64600245e-01
0.056571429    	6.64600244e-01
0.06           	6.64600244e-01
0.064          	6.64600241e-01
0.068          	6.64600239e-01
0.072          	6.64600236e-01
0.076          	6.64600233e-01
0.08           	6.64600230e-01
0.084          	6.64600225e-01
0.088          	6.64600220e-01
0.092          	6.64600214e-01
0.096          	6.64600206e-01
0.1            	6.64600197e-01
0.104          	6.64600188e-01
0.108          	6.64600177e-01
0.112          	6.64600167e-01
0.116          	6.64600157e-01
0.12           	6.64600145e-01
0.124          	6.64600130e-01
0.128          	6.64600114e-01
0.132          	6.64600097e-01
0.136          	6.64600082e-01
0.14           	6.64600067e-01
0.144          	6.64600050e-01
0.148          	6.64600050e-01
0.152          	6.64600049e-01
0.156          	6.64600031e-01
0.16           	6.64600013e-01
0.164          	6.64600013e-01
0.168          	6.64600013e-01
0.172          	6.64600013e-01
0.176          	6.64600013e-01
0.18           	6.64600013e-01
0.184          	6.64600013e-01
0.188          	6.64600013e-01
0.192          	6.64600012e-01
0.196          	6.64600012e-01
0.2            	6.64600012e-01
0.204          	6.64600012e-01
0.208          	6.64600012e-01
0.212          	6.64600012e-01
0.216          	6.64600012e-01
0.22           	6.64600012e-01
0.224          	6.64600011e-01
0.228          	6.64600011e-01
0.232          	6.64600011e-01
0.236          	6.64600011e-01
0.24           	6.64600011e-01
0.244          	6.64600010e-01
0.248          	6.64600010e-01
0.252          	6.64600009e-01
0.256          	6.64600008e-01
0.26           	6.64600007e-01
0.264          	6.64600005e-01
0.268          	6.64600003e-01
0.272          	6.64600000e-01
0.276          	6.64599998e-01
0.28           	6.64599994e-01
0.284          	6.64599990e-01
0.288          	6.64599985e-01
0.292          	6.64599980e-01
0.296          	6.64599973e-01
0.3            	6.64599962e-01
0.304          	6.64599951e-01
0.3072         	6.64599948e-01
0.3104         	6.64599944e-01
0.3136         	6.64599940e-01
0.3168         	6.64599937e-01
0.32           	6.64599935e-01
0.32333333     	6.64599934e-01
0.32611111     	6.64599934e-01
0.32888889     	6.64599933e-01
0.33166667     	6.64599933e-01
0.33444444     	6.64599933e-01
0.33722222     	6.64599933e-01
0.34           	6.64599933e-01
0.3425         	6.64599933e-01
0.345          	6.64599933e-01
0.3475         	6.64599933e-01
0.35           	6.64599933e-01
0.352          	6.64599925e-01
0.354          	6.64599918e-01
0.356          	6.64599912e-01
0.358          	6.64599906e-01
0.36           	6.64599900e-01
0.362          	6.64599895e-01
0.364          	6.64599890e-01
0.366          	6.64599885e-01
0.36775        	6.64599883e-01
0.3695         	6.64599880e-01
0.37125        	6.64599876e-01
0.373          	6.64599873e-01
0.3744         	6.64599871e-01
0.3758         	6.64599870e-01
0.3772         	6.64599869e-01
0.3786         	6.64599868e-01
0.38           	6.64599866e-01
0.38142857     	6.64599865e-01
0.38285714     	6.64599863e-01
0.38417582     	6.64599862e-01
0.38549451     	6.64599861e-01
0.3867033      	6.64599860e-01
0.38791209     	6.64599859e-01
0.38912088     	6.64599858e-01
0.39020879     	6.64599857e-01
0.3912967      	6.64599857e-01
0.39238462     	6.64599856e-01
0.39347253     	6.64599855e-01
0.39440502     	6.64599855e-01
0.39533752     	6.64599854e-01
0.39627002     	6.64599854e-01
0.39720251     	6.64599853e-01
0.39813501     	6.64599853e-01
0.3990675      	6.64599852e-01
0.39953375     	6.64599852e-01
0.4            	6.64599852e-01
0.40054054     	6.64599852e-01
0.40116827     	6.64599852e-01
0.40186574     	6.64599852e-01
0.40262133     	6.64599852e-01
0.40344889     	6.64599851e-01
0.40423703     	6.64599851e-01
0.40502518     	6.64599851e-01
0.40577392     	6.64599851e-01
0.40652266     	6.64599850e-01
0.40727141     	6.64599850e-01
0.40797855     	6.64599850e-01
0.40868569     	6.64599850e-01
0.40939284     	6.64599850e-01
0.41005579     	6.64599849e-01
0.41071873     	6.64599849e-01
0.41138168     	6.64599849e-01
0.41204463     	6.64599849e-01
0.41265658     	6.64599849e-01
0.41326853     	6.64599848e-01
0.41388048     	6.64599848e-01
0.41449244     	6.64599848e-01
0.41504319     	6.64599848e-01
0.41559395     	6.64599848e-01
0.4161447      	6.64599847e-01
0.41669546     	6.64599847e-01
0.41724622     	6.64599847e-01
0.41779697     	6.64599847e-01
0.41834773     	6.64599846e-01
0.4187608      	6.64599846e-01
0.41917387     	6.64599846e-01
0.41958693     	6.64599846e-01
0.42           	6.64599846e-01
0.42046512     	6.64599846e-01
0.42097919     	6.64599846e-01
0.42149327     	6.64599846e-01
0.42199345     	6.64599845e-01
0.42249363     	6.64599845e-01
0.42297992     	6.64599845e-01
0.42346621     	6.64599845e-01
0.4239525      	6.64599845e-01
0.42442448     	6.64599845e-01
0.42489647     	6.64599844e-01
0.42536845     	6.64599844e-01
0.42582569     	6.64599844e-01
0.42628292     	6.64599844e-01
0.42674016     	6.64599844e-01
0.4271974      	6.64599844e-01
0.42763886     	6.64599844e-01
0.42808033     	6.64599843e-01
0.4285218      	6.64599843e-01
0.42896327     	6.64599843e-01
0.42940474     	6.64599843e-01
0.42984621     	6.64599843e-01
0.43028768     	6.64599843e-01
0.43072915     	6.64599842e-01
0.43117062     	6.64599842e-01
0.43161209     	6.64599842e-01
0.43205356     	6.64599842e-01
0.43249503     	6.64599841e-01
0.43293649     	6.64599841e-01
0.43337796     	6.64599841e-01
0.43381943     	6.64599840e-01
0.4342609      	6.64599840e-01
0.43467084     	6.64599840e-01
0.43508077     	6.64599839e-01
0.43549071     	6.64599839e-01
0.43590064     	6.64599838e-01
0.43631058     	6.64599838e-01
0.43672052     	6.64599837e-01
0.43713045     	6.64599837e-01
0.43754039     	6.64599836e-01
0.43795032     	6.64599835e-01
0.43836026     	6.64599834e-01
0.43877019     	6.64599833e-01
0.43918013     	6.64599832e-01
0.43959006     	6.64599830e-01
0.44           	6.64599828e-01
0.44042553     	6.64599826e-01
0.44084201     	6.64599824e-01
0.44126774     	6.64599821e-01
0.44169348     	6.64599818e-01
0.44211921     	6.64599815e-01
0.44254494     	6.64599812e-01
0.44298132     	6.64599808e-01
0.4434177      	6.64599805e-01
0.44385407     	6.64599802e-01
0.44429045     	6.64599798e-01
0.44473929     	6.64599795e-01
0.44518814     	6.64599791e-01
0.44563698     	6.64599787e-01
0.44608583     	6.64599783e-01
0.44653467     	6.64599779e-01
0.44696904     	6.64599775e-01
0.4474034      	6.64599771e-01
0.44783777     	6.64599767e-01
0.44827213     	6.64599761e-01
0.44869098     	6.64599757e-01
0.44910984     	6.64599752e-01
0.44952869     	6.64599748e-01
0.44994754     	6.64599744e-01
0.45036639     	6.64599740e-01
0.45078525     	6.64599737e-01
0.45122404     	6.64599734e-01
0.45166284     	6.64599732e-01
0.45210164     	6.64599729e-01
0.45256625     	6.64599727e-01
0.45303086     	6.64599725e-01
0.45349547     	6.64599722e-01
0.45396008     	6.64599719e-01
0.45442469     	6.64599716e-01
0.4548893      	6.64599712e-01
0.45535391     	6.64599707e-01
0.45581852     	6.64599700e-01
0.45628312     	6.64599691e-01
0.45674773     	6.64599681e-01
0.45721234     	6.64599670e-01
0.45767695     	6.64599659e-01
0.45814156     	6.64599649e-01
0.45860617     	6.64599640e-01
0.45907078     	6.64599633e-01
0.45953539     	6.64599627e-01
0.46           	6.64599622e-01
0.46051282     	6.64599615e-01
0.4610696      	6.64599606e-01
0.46166117     	6.64599596e-01
0.46227247     	6.64599588e-01
0.46288376     	6.64599583e-01
0.46349505     	6.64599579e-01
0.46410635     	6.64599578e-01
0.46471764     	6.64599576e-01
0.46535441     	6.64599575e-01
0.46599117     	6.64599573e-01
0.46665826     	6.64599572e-01
0.46732535     	6.64599571e-01
0.46799243     	6.64599571e-01
0.46869876     	6.64599571e-01
0.46940509     	6.64599571e-01
0.47016187     	6.64599572e-01
0.47091865     	6.64599572e-01
0.47167543     	6.64599573e-01
0.47243221     	6.64599574e-01
0.47318899     	6.64599575e-01
0.47394577     	6.64599576e-01
0.47470254     	6.64599575e-01
0.47545932     	6.64599573e-01
0.4762161      	6.64599570e-01
0.47697288     	6.64599566e-01
0.47772966     	6.64599564e-01
0.47848644     	6.64599562e-01
0.47924322     	6.64599560e-01
0.48           	6.64599557e-01
0.48076923     	6.64599554e-01
0.48153846     	6.64599551e-01
0.48230769     	6.64599549e-01
0.48311189     	6.64599546e-01
0.48391608     	6.64599543e-01
0.48472028     	6.64599541e-01
0.48552448     	6.64599538e-01
0.48632867     	6.64599536e-01
0.48713287     	6.64599534e-01
0.48793706     	6.64599531e-01
0.48874126     	6.64599529e-01
0.48954545     	6.64599527e-01
0.49034965     	6.64599525e-01
0.49115385     	6.64599523e-01
0.49195804     	6.64599521e-01
0.49276224     	6.64599518e-01
0.49356643     	6.64599516e-01
0.49437063     	6.64599514e-01
0.49517483     	6.64599512e-01
0.49597902     	6.64599510e-01
0.49678322     	6.64599508e-01
0.49758741     	6.64599505e-01
0.49839161     	6.64599503e-01
0.4991958      	6.64599500e-01
0.5            	6.64599497e-01
0.50083333     	6.64599493e-01
0.50166667     	6.64599489e-01
0.5025         	6.64599485e-01
0.50333333     	6.64599480e-01
0.50416667     	6.64599475e-01
0.505          	6.64599470e-01
0.50583333     	6.64599465e-01
0.50666667     	6.64599459e-01
0.5075         	6.64599453e-01
0.50833333     	6.64599448e-01
0.50916667     	6.64599442e-01
0.51           	6.64599436e-01
0.51076923     	6.64599432e-01
0.51153846     	6.64599427e-01
0.51230769     	6.64599423e-01
0.51307692     	6.64599419e-01
0.51376923     	6.64599416e-01
0.51446154     	6.64599414e-01
0.51515385     	6.64599411e-01
0.51584615     	6.64599409e-01
0.51653846     	6.64599407e-01
0.51711538     	6.64599406e-01
0.51769231     	6.64599404e-01
0.51826923     	6.64599403e-01
0.51884615     	6.64599402e-01
0.51942308     	6.64599401e-01
0.52           	6.64599400e-01
0.520625       	6.64599399e-01
0.52123047     	6.64599398e-01
0.52183594     	6.64599397e-01
0.52242188     	6.64599396e-01
0.52300781     	6.64599395e-01
0.52359375     	6.64599394e-01
0.52415948     	6.64599393e-01
0.52472522     	6.64599393e-01
0.52527074     	6.64599392e-01
0.52581627     	6.64599391e-01
0.5263618      	6.64599391e-01
0.52688635     	6.64599390e-01
0.52741089     	6.64599390e-01
0.52793544     	6.64599389e-01
0.52845998     	6.64599388e-01
0.52896172     	6.64599388e-01
0.52946346     	6.64599388e-01
0.5299652      	6.64599387e-01
0.53046694     	6.64599387e-01
0.53096868     	6.64599386e-01
0.53147042     	6.64599386e-01
0.53197216     	6.64599386e-01
0.5324739      	6.64599385e-01
0.53297564     	6.64599385e-01
0.53344393     	6.64599385e-01
0.53391222     	6.64599385e-01
0.53438051     	6.64599384e-01
0.5348488      	6.64599384e-01
0.5353171      	6.64599384e-01
0.53578539     	6.64599384e-01
0.53625368     	6.64599384e-01
0.53672197     	6.64599384e-01
0.53719026     	6.64599383e-01
0.53765855     	6.64599383e-01
0.53812684     	6.64599383e-01
0.53859513     	6.64599383e-01
0.53906342     	6.64599383e-01
0.53953171     	6.64599383e-01
0.54           	6.64599383e-01
0.54051282     	6.64599383e-01
0.54105413     	6.64599383e-01
0.54161136     	6.64599382e-01
0.5421522      	6.64599382e-01
0.54266214     	6.64599382e-01
0.54315751     	6.64599382e-01
0.54365288     	6.64599382e-01
0.54413367     	6.64599382e-01
0.54460033     	6.64599382e-01
0.54506699     	6.64599382e-01
0.54553364     	6.64599382e-01
0.5460003      	6.64599382e-01
0.5464519      	6.64599382e-01
0.54690351     	6.64599382e-01
0.54735511     	6.64599382e-01
0.54780671     	6.64599381e-01
0.54825832     	6.64599381e-01
0.54870992     	6.64599381e-01
0.54914415     	6.64599381e-01
0.54957839     	6.64599381e-01
0.55001262     	6.64599381e-01
0.55044686     	6.64599381e-01
0.55088109     	6.64599381e-01
0.55129559     	6.64599381e-01
0.55171008     	6.64599381e-01
0.55212458     	6.64599381e-01
0.55253907     	6.64599381e-01
0.55295357     	6.64599381e-01
0.55336806     	6.64599381e-01
0.55378256     	6.64599381e-01
0.55419706     	6.64599381e-01
0.55461155     	6.64599381e-01
0.55502605     	6.64599381e-01
0.55544054     	6.64599381e-01
0.55585504     	6.64599381e-01
0.55626954     	6.64599381e-01
0.55668403     	6.64599381e-01
0.55709853     	6.64599381e-01
0.55751302     	6.64599381e-01
0.55792752     	6.64599381e-01
0.55834202     	6.64599381e-01
0.55875651     	6.64599381e-01
0.55917101     	6.64599381e-01
0.5595855      	6.64599381e-01
0.56           	6.64599380e-01
0.56043478     	6.64599380e-01
0.56086957     	6.64599380e-01
0.56131446     	6.64599380e-01
0.56175935     	6.64599380e-01
0.56220425     	6.64599380e-01
0.56264914     	6.64599380e-01
0.56310574     	6.64599380e-01
0.56356234     	6.64599380e-01
0.56401895     	6.64599380e-01
0.56448898     	6.64599380e-01
0.56495901     	6.64599380e-01
0.56542904     	6.64599380e-01
0.56591474     	6.64599380e-01
0.56640044     	6.64599380e-01
0.56688613     	6.64599380e-01
0.56737183     	6.64599380e-01
0.56785753     	6.64599380e-01
0.56834323     	6.64599380e-01
0.5688095      	6.64599380e-01
0.56927577     	6.64599380e-01
0.56974204     	6.64599379e-01
0.57020831     	6.64599379e-01
0.57067458     	6.64599379e-01
0.57114086     	6.64599379e-01
0.57158381     	6.64599379e-01
0.57202677     	6.64599379e-01
0.57246973     	6.64599379e-01
0.57291268     	6.64599379e-01
0.57335564     	6.64599379e-01
0.5737986      	6.64599379e-01
0.57424156     	6.64599379e-01
0.57468451     	6.64599379e-01
0.57512747     	6.64599379e-01
0.57557043     	6.64599379e-01
0.57601338     	6.64599379e-01
0.57645634     	6.64599379e-01
0.5768993      	6.64599379e-01
0.57734226     	6.64599379e-01
0.57778521     	6.64599379e-01
0.57822817     	6.64599379e-01
0.57867113     	6.64599379e-01
0.57911409     	6.64599379e-01
0.57955704     	6.64599379e-01
0.58           	6.64599379e-01
0.58045455     	6.64599378e-01
0.58090909     	6.64599378e-01
0.58136364     	6.64599378e-01
0.58181818     	6.64599378e-01
0.58227273     	6.64599378e-01
0.58271591     	6.64599378e-01
0.58315909     	6.64599378e-01
0.58360227     	6.64599378e-01
0.58404545     	6.64599378e-01
0.58448864     	6.64599378e-01
0.58493182     	6.64599378e-01
0.585375       	6.64599378e-01
0.58580515     	6.64599378e-01
0.58623529     	6.64599378e-01
0.58666544     	6.64599378e-01
0.58709559     	6.64599378e-01
0.58752574     	6.64599378e-01
0.58794154     	6.64599378e-01
0.58835735     	6.64599378e-01
0.58877316     	6.64599378e-01
0.58918897     	6.64599378e-01
0.58960478     	6.64599378e-01
0.59002059     	6.64599377e-01
0.5904364      	6.64599377e-01
0.59085221     	6.64599377e-01
0.59126801     	6.64599377e-01
0.59168382     	6.64599377e-01
0.59209963     	6.64599377e-01
0.59251544     	6.64599377e-01
0.59293125     	6.64599377e-01
0.59334706     	6.64599377e-01
0.59376287     	6.64599377e-01
0.59417868     	6.64599377e-01
0.59459449     	6.64599377e-01
0.59501029     	6.64599377e-01
0.5954261      	6.64599377e-01
0.59584191     	6.64599377e-01
0.59625772     	6.64599377e-01
0.59667353     	6.64599377e-01
0.59708934     	6.64599377e-01
0.59750515     	6.64599377e-01
0.59792096     	6.64599377e-01
0.59826746     	6.64599377e-01
0.59861397     	6.64599377e-01
0.59896048     	6.64599377e-01
0.59930699     	6.64599377e-01
0.59965349     	6.64599377e-01
0.6            	6.64599377e-01
0.60038462     	6.64599377e-01
0.60079327     	6.64599377e-01
0.60120192     	6.64599377e-01
0.60161058     	6.64599377e-01
0.60201923     	6.64599377e-01
0.60242788     	6.64599377e-01
0.60283654     	6.64599377e-01
0.60324519     	6.64599377e-01
0.60365385     	6.64599377e-01
0.6040625      	6.64599377e-01
0.60447115     	6.64599377e-01
0.60487981     	6.64599377e-01
0.60529981     	6.64599377e-01
0.60571982     	6.64599377e-01
0.60613982     	6.64599377e-01
0.60655983     	6.64599377e-01
0.60697983     	6.64599377e-01
0.60739984     	6.64599377e-01
0.60781985     	6.64599377e-01
0.60825485     	6.64599377e-01
0.60868986     	6.64599377e-01
0.60912486     	6.64599377e-01
0.60955987     	6.64599377e-01
0.60999487     	6.64599377e-01
0.61042988     	6.64599377e-01
0.61086488     	6.64599377e-01
0.61132164     	6.64599377e-01
0.6117784      	6.64599377e-01
0.61223515     	6.64599377e-01
0.61269191     	6.64599377e-01
0.61314866     	6.64599377e-01
0.61360542     	6.64599377e-01
0.61406217     	6.64599376e-01
0.61451893     	6.64599376e-01
0.61497569     	6.64599376e-01
0.61543244     	6.64599376e-01
0.6158892      	6.64599376e-01
0.61634595     	6.64599376e-01
0.61680271     	6.64599376e-01
0.61725947     	6.64599376e-01
0.61771622     	6.64599376e-01
0.61817298     	6.64599376e-01
0.61862973     	6.64599376e-01
0.61908649     	6.64599376e-01
0.61954324     	6.64599376e-01
0.62           	6.64599376e-01
0.6205         	6.64599376e-01
0.62102703     	6.64599375e-01
0.62155405     	6.64599375e-01
0.62209658     	6.64599375e-01
0.62263911     	6.64599375e-01
0.62319914     	6.64599375e-01
0.62375917     	6.64599375e-01
0.6243192      	6.64599374e-01
0.62487922     	6.64599374e-01
0.62543925     	6.64599374e-01
0.62599928     	6.64599374e-01
0.62655931     	6.64599374e-01
0.62711934     	6.64599374e-01
0.62767937     	6.64599373e-01
0.6282394      	6.64599373e-01
0.62879943     	6.64599373e-01
0.62935945     	6.64599373e-01
0.62991948     	6.64599373e-01
0.63047951     	6.64599372e-01
0.63107454     	6.64599372e-01
0.63166957     	6.64599372e-01
0.6322646      	6.64599372e-01
0.63285963     	6.64599371e-01
0.63345466     	6.64599371e-01
0.63404969     	6.64599371e-01
0.63464473     	6.64599370e-01
0.63523976     	6.64599370e-01
0.63583479     	6.64599370e-01
0.63642982     	6.64599370e-01
0.63702485     	6.64599369e-01
0.63761988     	6.64599369e-01
0.63821491     	6.64599369e-01
0.63880994     	6.64599369e-01
0.63940497     	6.64599368e-01
0.64           	6.64599368e-01
0.64064516     	6.64599368e-01
0.64129032     	6.64599368e-01
0.64195853     	6.64599367e-01
0.64262673     	6.64599367e-01
0.64329493     	6.64599367e-01
0.64396313     	6.64599366e-01
0.64463134     	6.64599366e-01
0.64529954     	6.64599366e-01
0.64599956     	6.64599366e-01
0.64669958     	6.64599365e-01
0.64739961     	6.64599365e-01
0.64809963     	6.64599365e-01
0.64879965     	6.64599365e-01
0.64949967     	6.64599364e-01
0.65024969     	6.64599364e-01
0.65099972     	6.64599364e-01
0.65174974     	6.64599364e-01
0.65249976     	6.64599364e-01
0.65324979     	6.64599364e-01
0.65399981     	6.64599364e-01
0.65474984     	6.64599363e-01
0.65549986     	6.64599363e-01
0.65624988     	6.64599363e-01
0.65699991     	6.64599363e-01
0.65774993     	6.64599363e-01
0.65849995     	6.64599363e-01
0.65924998     	6.64599363e-01
0.66           	6.64599363e-01
0.6608         	6.64599363e-01
0.66163478     	6.64599363e-01
0.66246957     	6.64599363e-01
0.66330435     	6.64599363e-01
0.66413913     	6.64599363e-01
0.66497391     	6.64599363e-01
0.6658087      	6.64599363e-01
0.66664348     	6.64599363e-01
0.66747826     	6.64599363e-01
0.66831304     	6.64599363e-01
0.66914783     	6.64599363e-01
0.66998261     	6.64599363e-01
0.67081739     	6.64599363e-01
0.67165217     	6.64599362e-01
0.67248696     	6.64599362e-01
0.67332174     	6.64599362e-01
0.67415652     	6.64599362e-01
0.6749913      	6.64599362e-01
0.67582609     	6.64599361e-01
0.67666087     	6.64599361e-01
0.67749565     	6.64599361e-01
0.67833043     	6.64599361e-01
0.67916522     	6.64599360e-01
0.68           	6.64599360e-01
0.68090909     	6.64599360e-01
0.68186364     	6.64599359e-01
0.68281818     	6.64599359e-01
0.68377273     	6.64599358e-01
0.68472727     	6.64599358e-01
0.68568182     	6.64599357e-01
0.68663636     	6.64599357e-01
0.68759091     	6.64599356e-01
0.68854545     	6.64599355e-01
0.6895         	6.64599355e-01
0.69045455     	6.64599354e-01
0.69140909     	6.64599353e-01
0.69236364     	6.64599352e-01
0.69331818     	6.64599352e-01
0.69427273     	6.64599351e-01
0.69522727     	6.64599350e-01
0.69618182     	6.64599349e-01
0.69713636     	6.64599348e-01
0.69809091     	6.64599347e-01
0.69904545     	6.64599345e-01
0.7            	6.64599344e-01
0.701          	6.64599343e-01
0.70195        	6.64599341e-01
0.7029         	6.64599340e-01
0.70385        	6.64599339e-01
0.7048         	6.64599337e-01
0.70575        	6.64599336e-01
0.7067         	6.64599334e-01
0.70758667     	6.64599333e-01
0.70847333     	6.64599332e-01
0.70936        	6.64599331e-01
0.71024667     	6.64599329e-01
0.71113333     	6.64599328e-01
0.71202        	6.64599327e-01
0.71290667     	6.64599325e-01
0.71379333     	6.64599324e-01
0.71468        	6.64599323e-01
0.71556667     	6.64599321e-01
0.71645333     	6.64599320e-01
0.71734        	6.64599319e-01
0.71822667     	6.64599317e-01
0.71911333     	6.64599316e-01
0.72           	6.64599314e-01
0.72090909     	6.64599313e-01
0.72181818     	6.64599311e-01
0.72272727     	6.64599310e-01
0.72363636     	6.64599308e-01
0.72454545     	6.64599306e-01
0.72545455     	6.64599305e-01
0.72636364     	6.64599303e-01
0.72727273     	6.64599301e-01
0.72818182     	6.64599300e-01
0.72909091     	6.64599298e-01
0.73           	6.64599296e-01
0.73090909     	6.64599295e-01
0.73181818     	6.64599293e-01
0.73272727     	6.64599292e-01
0.73363636     	6.64599290e-01
0.73454545     	6.64599288e-01
0.73545455     	6.64599287e-01
0.73636364     	6.64599285e-01
0.73727273     	6.64599283e-01
0.73818182     	6.64599281e-01
0.73909091     	6.64599280e-01
0.74           	6.64599278e-01
0.74095238     	6.64599276e-01
0.74190476     	6.64599274e-01
0.74285714     	6.64599272e-01
0.74380952     	6.64599270e-01
0.7447619      	6.64599269e-01
0.74571429     	6.64599267e-01
0.74666667     	6.64599265e-01
0.74761905     	6.64599263e-01
0.74857143     	6.64599261e-01
0.74952381     	6.64599259e-01
0.75047619     	6.64599257e-01
0.75142857     	6.64599255e-01
0.75238095     	6.64599253e-01
0.75333333     	6.64599252e-01
0.75428571     	6.64599250e-01
0.7552381      	6.64599248e-01
0.75619048     	6.64599246e-01
0.75714286     	6.64599244e-01
0.75809524     	6.64599242e-01
0.75904762     	6.64599240e-01
0.76           	6.64599238e-01
0.761          	6.64599236e-01
0.762          	6.64599234e-01
0.763          	6.64599232e-01
0.764          	6.64599230e-01
0.765          	6.64599228e-01
0.766          	6.64599226e-01
0.767          	6.64599223e-01
0.768          	6.64599221e-01
0.769          	6.64599219e-01
0.77           	6.64599217e-01
0.771          	6.64599214e-01
0.772          	6.64599212e-01
0.773          	6.64599210e-01
0.774          	6.64599207e-01
0.775          	6.64599204e-01
0.776          	6.64599202e-01
0.777          	6.64599199e-01
0.778          	6.64599196e-01
0.779          	6.64599193e-01
0.78           	6.64599189e-01
0.78105263     	6.64599185e-01
0.78210526     	6.64599181e-01
0.78315789     	6.64599176e-01
0.78421053     	6.64599171e-01
0.78526316     	6.64599165e-01
0.78631579     	6.64599159e-01
0.78736842     	6.64599153e-01
0.78842105     	6.64599146e-01
0.78947368     	6.64599138e-01
0.79052632     	6.64599129e-01
0.79157895     	6.64599120e-01
0.79263158     	6.64599110e-01
0.79368421     	6.64599099e-01
0.79473684     	6.64599087e-01
0.79578947     	6.64599074e-01
0.79684211     	6.64599061e-01
0.79789474     	6.64599046e-01
0.79894737     	6.64599029e-01
0.8            	6.64599012e-01
0.80105263     	6.64598993e-01
0.80210526     	6.64598973e-01
0.80315789     	6.64598951e-01
0.80421053     	6.64598928e-01
0.80526316     	6.64598903e-01
0.80631579     	6.64598876e-01
0.80736842     	6.64598848e-01
0.80842105     	6.64598817e-01
0.80947368     	6.64598785e-01
0.81052632     	6.64598751e-01
0.81157895     	6.64598715e-01
0.81263158     	6.64598677e-01
0.81368421     	6.64598637e-01
0.81473684     	6.64598595e-01
0.81578947     	6.64598550e-01
0.81684211     	6.64598504e-01
0.81789474     	6.64598455e-01
0.81894737     	6.64598403e-01
0.82           	6.64598349e-01
0.82105263     	6.64598293e-01
0.82210526     	6.64598234e-01
0.82315789     	6.64598173e-01
0.82421053     	6.64598109e-01
0.82526316     	6.64598042e-01
0.82631579     	6.64597972e-01
0.82736842     	6.64597900e-01
0.82842105     	6.64597825e-01
0.82947368     	6.64597747e-01
0.83052632     	6.64597667e-01
0.83157895     	6.64597583e-01
0.83263158     	6.64597496e-01
0.83368421     	6.64597407e-01
0.83473684     	6.64597314e-01
0.83578947     	6.64597218e-01
0.83684211     	6.64597120e-01
0.83789474     	6.64597018e-01
0.83894737     	6.64596913e-01
0.84           	6.64596805e-01
0.84105263     	6.64596694e-01
0.84210526     	6.64596580e-01
0.84315789     	6.64596463e-01
0.84421053     	6.64596343e-01
0.84526316     	6.64596220e-01
0.84631579     	6.64596094e-01
0.84736842     	6.64595965e-01
0.84842105     	6.64595832e-01
0.84947368     	6.64595697e-01
0.85052632     	6.64595559e-01
0.85157895     	6.64595418e-01
0.85263158     	6.64595273e-01
0.85368421     	6.64595126e-01
0.85473684     	6.64594976e-01
0.85578947     	6.64594823e-01
0.85684211     	6.64594667e-01
0.85789474     	6.64594508e-01
0.85894737     	6.64594346e-01
0.86           	6.64594181e-01
0.86105263     	6.64594014e-01
0.86210526     	6.64593843e-01
0.86315789     	6.64593670e-01
0.86421053     	6.64593494e-01
0.86526316     	6.64593315e-01
0.86631579     	6.64593134e-01
0.86736842     	6.64592949e-01
0.86842105     	6.64592763e-01
0.86947368     	6.64592573e-01
0.87052632     	6.64592381e-01
0.87157895     	6.64592187e-01
0.87263158     	6.64591989e-01
0.87368421     	6.64591789e-01
0.87473684     	6.64591586e-01
0.87578947     	6.64591379e-01
0.87684211     	6.64591169e-01
0.87789474     	6.64590956e-01
0.87894737     	6.64590740e-01
0.88           	6.64590520e-01
0.88105263     	6.64590298e-01
0.88210526     	6.64590073e-01
0.88315789     	6.64589846e-01
0.88421053     	6.64589615e-01
0.88526316     	6.64589383e-01
0.88631579     	6.64589148e-01
0.88736842     	6.64588910e-01
0.88842105     	6.64588671e-01
0.88947368     	6.64588429e-01
0.89052632     	6.64588186e-01
0.89157895     	6.64587941e-01
0.89263158     	6.64587695e-01
0.89368421     	6.64587448e-01
0.89473684     	6.64587200e-01
0.89578947     	6.64586951e-01
0.89684211     	6.64586702e-01
0.89789474     	6.64586452e-01
0.89894737     	6.64586201e-01
0.9            	6.64585951e-01
0.90111111     	6.64585686e-01
0.90222222     	6.64585420e-01
0.90333333     	6.64585154e-01
0.90444444     	6.64584888e-01
0.90555556     	6.64584622e-01
0.90666667     	6.64584357e-01
0.90777778     	6.64584092e-01
0.90888889     	6.64583827e-01
0.91           	6.64583564e-01
0.91111111     	6.64583301e-01
0.91222222     	6.64583038e-01
0.91333333     	6.64582777e-01
0.91444444     	6.64582517e-01
0.91555556     	6.64582258e-01
0.91666667     	6.64582001e-01
0.91777778     	6.64581745e-01
0.91888889     	6.64581491e-01
0.92           	6.64581239e-01
0.92111111     	6.64580989e-01
0.92222222     	6.64580741e-01
0.92333333     	6.64580495e-01
0.92444444     	6.64580252e-01
0.92555556     	6.64580011e-01
0.92666667     	6.64579772e-01
0.92777778     	6.64579536e-01
0.92888889     	6.64579303e-01
0.93           	6.64579072e-01
0.93111111     	6.64578843e-01
0.93222222     	6.64578617e-01
0.93333333     	6.64578394e-01
0.93444444     	6.64578173e-01
0.93555556     	6.64577955e-01
0.93666667     	6.64577741e-01
0.93777778     	6.64577530e-01
0.93888889     	6.64577322e-01
0.94           	6.64577118e-01
0.94111111     	6.64576917e-01
0.94222222     	6.64576719e-01
0.94333333     	6.64576526e-01
0.94444444     	6.64576335e-01
0.94555556     	6.64576149e-01
0.94666667     	6.64575966e-01
0.94777778     	6.64575786e-01
0.94888889     	6.64575610e-01
0.95           	6.64575438e-01
0.95111111     	6.64575269e-01
0.95222222     	6.64575104e-01
0.95333333     	6.64574942e-01
0.95444444     	6.64574785e-01
0.95555556     	6.64574630e-01
0.95666667     	6.64574480e-01
0.95777778     	6.64574333e-01
0.95888889     	6.64574190e-01
0.96           	6.64574051e-01
0.96117647     	6.64573907e-01
0.96235294     	6.64573767e-01
0.96352941     	6.64573631e-01
0.96470588     	6.64573500e-01
0.96588235     	6.64573374e-01
0.96705882     	6.64573253e-01
0.96823529     	6.64573136e-01
0.96941176     	6.64573023e-01
0.97058824     	6.64572916e-01
0.97176471     	6.64572812e-01
0.97294118     	6.64572714e-01
0.97411765     	6.64572619e-01
0.97529412     	6.64572528e-01
0.97647059     	6.64572441e-01
0.97764706     	6.64572358e-01
0.97882353     	6.64572279e-01
0.98           	6.64572203e-01
0.98117647     	6.64572130e-01
0.98235294     	6.64572061e-01
0.98352941     	6.64571995e-01
0.98470588     	6.64571931e-01
0.98588235     	6.64571871e-01
0.98705882     	6.64571813e-01
0.98823529     	6.64571757e-01
0.98941176     	6.64571714e-01
0.99058824     	6.64571673e-01
0.99176471     	6.64571635e-01