# Field minima and maxima
# Time         	field          	min            	location(min)  	processor      	max            	location(max)  	processor      
0.00011976048  	p              	-2.78753233e+01	(2.03690635e+00 5.00000000e-01 5.74996541e-01)	3	5.12904764e+03	(3.19483362e+00 2.25000008e-01 0.00000000e+00)	2
0.00011976048  	p_rgh          	-2.22346072e+01	(2.03690665e+00 4.75000182e-01 5.74996538e-01)	3	5.38923105e+03	(3.19483435e+00 4.75000000e-01 5.24999858e-01)	2
0.00011976048  	U              	(-1.12815279e-04 -1.81357706e-05 3.88678694e-06)	(4.75862105e-01 7.52401440e-02 2.50050664e-02)	0	(-7.66449992e-06 1.53812556e-06 6.87797367e-05)	(2.50054339e-02 -2.75074021e-01 2.24978989e-01)	0
0.00011976048  	alpha.water    	0.00000000e+00	(2.50038585e-02 -4.75014650e-01 2.49980762e-02)	0	1.00000000e+00	(2.23828753e+00 -4.75000109e-01 2.49998516e-02)	2
0.00011976048  	k              	9.97250101e-02	(7.48321671e-01 -2.06959817e-01 6.87515557e-02)	1	1.00000000e-01	(2.23841170e+00 -4.75000030e-01 1.00000000e+00)	2
0.00011976048  	epsilon        	9.89886022e-02	(8.34130880e-01 2.09489237e-01 1.69623915e-01)	1	2.32124058e+00	(7.48321654e-01 2.06959814e-01 6.87515549e-02)	1
0.00026278378  	p              	-2.36097228e+01	(2.03690635e+00 5.00000000e-01 5.74996541e-01)	3	5.12604220e+03	(3.19483357e+00 -4.75000008e-01 0.00000000e+00)	2
0.00026278378  	p_rgh          	-1.79690067e+01	(2.03690665e+00 4.75000182e-01 5.74996538e-01)	3	5.38939367e+03	(3.19483440e+00 -2.50000005e-02 5.24999861e-01)	2
0.00026278378  	U              	(-8.76711825e-04 -6.50322908e-04 2.69769760e-06)	(6.55988957e-01 2.09123197e-01 6.24140037e-03)	1	(9.98048538e-03 2.69972354e-04 3.14042644e-02)	(1.93616222e+00 -4.75000326e-01 5.74995329e-01)	3
0.00026278378  	alpha.water    	-3.87663291e-24	(1.93614071e+00 -1.75002036e-01 5.24995086e-01)	3	1.00000000e+00	(2.23828775e+00 2.50001085e-02 2.49998486e-02)	2
0.00026278378  	k              	9.93980712e-02	(7.48321654e-01 2.06959814e-01 6.87515549e-02)	1	1.00000000e-01	(2.23841170e+00 -4.75000030e-01 1.00000000e+00)	2
0.00026278378  	epsilon        	9.80308075e-02	(8.34130880e-01 2.09489237e-01 1.69623915e-01)	1	2.31167242e+00	(7.48321654e-01 2.06959814e-01 6.87515549e-02)	1
0.0004329322   	p              	-1.89385139e+01	(2.03690635e+00 -5.00000000e-01 5.74996541e-01)	3	5.12568125e+03	(3.19483357e+00 -4.75000008e-01 0.00000000e+00)	2
0.0004329322   	p_rgh          	-1.32977978e+01	(2.03690665e+00 -4.75000182e-01 5.74996538e-01)	3	5.38944452e+03	(3.19483440e+00 -2.50000005e-02 5.24999861e-01)	2
0.0004329322   	U              	(-1.26681941e-03 -9.53928571e-04 4.44615850e-06)	(6.55988957e-01 2.09123197e-01 6.24140037e-03)	1	(1.44923028e-02 5.51917810e-04 4.65857067e-02)	(1.93616222e+00 -4.75000326e-01 5.74995329e-01)	3
0.0004329322   	alpha.water    	-9.22383822e-24	(1.93614288e+00 -4.75000363e-01 5.24995299e-01)	3	1.00000001e+00	(2.23828775e+00 2.50001085e-02 2.49998486e-02)	2
0.0004329322   	k              	9.90129842e-02	(7.48321671e-01 -2.06959817e-01 6.87515557e-02)	1	1.00000000e-01	(2.23841170e+00 -4.75000030e-01 1.00000000e+00)	2
0.0004329322   	epsilon        	9.71476192e-02	(8.34130880e-01 2.09489237e-01 1.69623915e-01)	1	2.30031382e+00	(7.48321654e-01 2.06959814e-01 6.87515549e-02)	1
0.00063675582  	p              	-1.52719388e+01	(2.03690728e+00 3.25001038e-01 5.74996492e-01)	3	5.12486889e+03	(3.19483360e+00 4.25000000e-01 0.00000000e+00)	2
0.00063675582  	p_rgh          	-9.63122320e+00	(2.03690728e+00 3.25001038e-01 5.74996492e-01)	3	5.38947770e+03	(3.19483440e+00 2.50000005e-02 5.24999861e-01)	2
0.00063675582  	U              	(-2.63437491e-02 -1.41616913e-03 -1.85678419e-02)	(2.08728815e+00 -4.75000125e-01 6.24997131e-01)	3	(1.86931450e-02 6.88181209e-04 5.84856765e-02)	(1.93616222e+00 -4.75000326e-01 5.74995329e-01)	3
0.00063675582  	alpha.water    	-4.41975582e-23	(1.93614288e+00 -4.75000363e-01 5.24995299e-01)	3	1.00000001e+00	(2.23828775e+00 2.50001085e-02 2.49998486e-02)	2
0.00063675582  	k              	9.85568570e-02	(7.48321654e-01 2.06959814e-01 6.87515549e-02)	1	1.00000000e-01	(2.23841170e+00 -4.75000030e-01 1.00000000e+00)	2
0.00063675582  	epsilon        	9.64000385e-02	(8.34130880e-01 2.09489237e-01 1.69623915e-01)	1	2.28695906e+00	(7.48321654e-01 2.06959814e-01 6.87515549e-02)	1
0.00087879638  	p              	-1.29554851e+01	(2.03690696e+00 -2.25001151e-01 5.74996445e-01)	3	5.12429624e+03	(3.19483357e+00 -4.75000008e-01 0.00000000e+00)	2
0.00087879638  	p_rgh          	-7.31476996e+00	(2.03690696e+00 -2.25001151e-01 5.74996445e-01)	3	5.38947766e+03	(3.19483440e+00 -2.50000005e-02 5.24999861e-01)	2
0.00087879638  	U              	(-3.19598593e-02 -1.53671190e-03 -2.00773079e-02)	(2.08728815e+00 -4.75000125e-01 6.24997131e-01)	3	(1.26224876e-01 8.17817143e-04 1.46739724e-01)	(1.98653560e+00 4.75000242e-01 5.74995974e-01)	3
0.00087879638  	alpha.water    	-2.64262433e-21	(1.93601195e+00 -4.75000659e-01 1.24998418e-01)	3	1.00000001e+00	(2.23828775e+00 2.50001085e-02 2.49998486e-02)	2
0.00087879638  	k              	9.80221217e-02	(7.48321654e-01 2.06959814e-01 6.87515549e-02)	1	1.00000000e-01	(2.23841170e+00 -4.75000030e-01 1.00000000e+00)	2
0.00087879638  	epsilon        	9.58775226e-02	(8.34130880e-01 2.09489237e-01 1.69623915e-01)	1	2.27117407e+00	(7.48321654e-01 2.06959814e-01 6.87515549e-02)	1
0.0011685116   	p              	-1.15731747e+01	(2.03690628e+00 -2.50001869e-02 5.74996389e-01)	3	5.12399693e+03	(3.19483360e+00 4.25000000e-01 0.00000000e+00)	2
0.0011685116   	p_rgh          	-5.93246015e+00	(2.03690628e+00 -2.50001869e-02 5.74996389e-01)	3	5.38945609e+03	(3.19483440e+00 2.50000005e-02 5.24999861e-01)	2
0.0011685116   	U              	(-2.42745931e-03 -1.81600469e-03 6.89688474e-06)	(6.55988957e-01 2.09123197e-01 6.24140037e-03)	1	(1.41396263e-01 8.95617807e-04 1.46202864e-01)	(1.98653599e+00 4.25000706e-01 5.74995965e-01)	3
0.0011685116   	alpha.water    	-2.38067402e-20	(1.93601195e+00 -4.75000659e-01 1.24998418e-01)	3	1.00000002e+00	(2.23828775e+00 2.50001085e-02 2.49998486e-02)	2
0.0011685116   	k              	9.73913750e-02	(7.48321671e-01 -2.06959817e-01 6.87515557e-02)	1	1.00000000e-01	(2.23841170e+00 -4.75000030e-01 1.00000000e+00)	2
0.0011685116   	epsilon        	9.54183977e-02	(8.40246631e-01 1.25069939e-02 1.87733510e-01)	1	2.25271526e+00	(7.48321654e-01 2.06959814e-01 6.87515549e-02)	1
0.0015109023   	p              	-1.06610922e+01	(2.03690628e+00 2.50001873e-02 5.74996389e-01)	3	5.12370023e+03	(3.19483360e+00 -4.25000000e-01 0.00000000e+00)	2
0.0015109023   	p_rgh          	-5.02037765e+00	(2.03690628e+00 2.50001873e-02 5.74996389e-01)	3	5.38944080e+03	(3.19483440e+00 -2.50000005e-02 5.24999861e-01)	2
0.0015109023   	U              	(-2.90401970e-03 -2.19032995e-03 8.52786219e-06)	(6.55988957e-01 2.09123197e-01 6.24140037e-03)	1	(1.53742152e-01 1.23011129e-03 1.51817586e-01)	(1.98653599e+00 4.25000706e-01 5.74995965e-01)	3
0.0015109023   	alpha.water    	-1.32717728e-19	(1.93601195e+00 -4.75000659e-01 1.24998418e-01)	3	1.00000002e+00	(2.23828775e+00 2.50001085e-02 2.49998486e-02)	2
0.0015109023   	k              	9.66582925e-02	(7.48321671e-01 -2.06959817e-01 6.87515557e-02)	1	1.00006486e-01	(2.03692137e+00 -2.50001618e-02 6.24996512e-01)	3
0.0015109023   	epsilon        	9.44645160e-02	(8.40246631e-01 1.25069939e-02 1.87733510e-01)	1	2.23100685e+00	(7.48321654e-01 2.06959814e-01 6.87515549e-02)	1
0.0019128392   	p              	-1.01180360e+01	(2.03690628e+00 2.50001873e-02 5.74996389e-01)	3	5.12335685e+03	(3.19483360e+00 4.25000000e-01 0.00000000e+00)	2
0.0019128392   	p_rgh          	-4.47732139e+00	(2.03690628e+00 2.50001873e-02 5.74996389e-01)	3	5.38936172e+03	(3.19483435e+00 4.25000000e-01 5.24999860e-01)	2
0.0019128392   	U              	(-4.63669372e-02 -5.27429986e-03 -3.10216496e-02)	(2.08727523e+00 4.75000140e-01 5.74997023e-01)	3	(1.64936920e-01 1.56580150e-03 1.53265437e-01)	(1.98653599e+00 4.25000706e-01 5.74995965e-01)	3
0.0019128392   	alpha.water    	-6.00079133e-19	(1.88560837e+00 -4.75000918e-01 7.49989152e-02)	3	1.00000002e+00	(2.23828775e+00 2.50001085e-02 2.49998486e-02)	2
0.0019128392   	k              	9.58138262e-02	(7.48321671e-01 -2.06959817e-01 6.87515557e-02)	1	1.00018988e-01	(2.03692137e+00 -2.50001618e-02 6.24996512e-01)	3
0.0019128392   	epsilon        	9.34952558e-02	(8.40257549e-01 6.25477864e-02 1.87742543e-01)	1	2.20586451e+00	(7.48321654e-01 2.06959814e-01 6.87515549e-02)	1
0.0023888171   	p              	-9.81004884e+00	(2.28876383e+00 -4.75000031e-01 1.00000000e+00)	2	5.12307852e+03	(3.19483357e+00 4.75000008e-01 0.00000000e+00)	2
0.0023888171   	p_rgh          	-4.07553868e+00	(2.03690628e+00 -2.50001869e-02 5.74996389e-01)	3	5.38926997e+03	(3.19483435e+00 4.25000000e-01 5.24999860e-01)	2
0.0023888171   	U              	(-7.86566580e-02 -4.23685305e-03 -1.24110857e-03)	(1.98639069e+00 -4.75000504e-01 2.49997051e-02)	3	(1.75567983e-01 2.05348240e-03 1.51236362e-01)	(1.98653599e+00 4.25000706e-01 5.74995965e-01)	3
0.0023888171   	alpha.water    	-2.60814487e-18	(1.88560837e+00 -4.75000918e-01 7.49989152e-02)	3	1.00000002e+00	(2.23828775e+00 2.50001085e-02 2.49998486e-02)	2
0.0023888171   	k              	9.48350408e-02	(7.48321654e-01 2.06959814e-01 6.87515549e-02)	1	1.00033350e-01	(2.03692137e+00 -2.50001618e-02 6.24996512e-01)	3
0.0023888171   	epsilon        	9.25259553e-02	(8.40257549e-01 6.25477864e-02 1.87742543e-01)	1	2.17702006e+00	(7.48321654e-01 2.06959814e-01 6.87515549e-02)	1
0.0029569198   	p              	-9.81006754e+00	(2.28876383e+00 4.75000031e-01 1.00000000e+00)	2	5.12312507e+03	(3.19483360e+00 -4.25000000e-01 0.00000000e+00)	2
0.0029569198   	p_rgh          	-3.84954678e+00	(2.03690696e+00 -2.25001151e-01 5.74996445e-01)	3	5.38915597e+03	(3.19483435e+00 -4.25000000e-01 5.24999860e-01)	2
0.0029569198   	U              	(-9.46876986e-02 -4.63768847e-03 -3.73253361e-03)	(1.98639069e+00 -4.75000504e-01 2.49997051e-02)	3	(1.85651164e-01 2.68851532e-03 1.45324339e-01)	(1.98653599e+00 4.25000706e-01 5.74995965e-01)	3
0.0029569198   	alpha.water    	-1.11448041e-17	(1.88560837e+00 -4.75000918e-01 7.49989152e-02)	3	1.00000005e+00	(2.03686080e+00 4.75000248e-01 4.24996701e-01)	3
0.0029569198   	k              	9.36953953e-02	(7.48321654e-01 2.06959814e-01 6.87515549e-02)	1	1.00050125e-01	(2.03692137e+00 -2.50001618e-02 6.24996512e-01)	3
0.0029569198   	epsilon        	9.15839256e-02	(8.40272838e-01 -8.75912021e-02 1.87755533e-01)	1	2.14374639e+00	(7.48321654e-01 2.06959814e-01 6.87515549e-02)	1
0.003638643    	p              	-9.81009485e+00	(2.28876383e+00 -4.75000031e-01 1.00000000e+00)	2	5.12305210e+03	(3.19483360e+00 4.25000000e-01 0.00000000e+00)	2
0.003638643    	p_rgh          	-3.70931597e+00	(2.03690715e+00 -2.75001141e-01 5.74996472e-01)	3	5.38897203e+03	(3.19483435e+00 -4.25000000e-01 5.24999860e-01)	2
0.003638643    	U              	(-1.13162517e-01 -4.83111741e-03 -7.05651705e-03)	(1.98639069e+00 -4.75000504e-01 2.49997051e-02)	3	(1.95012570e-01 3.62299189e-03 1.34746942e-01)	(1.98653599e+00 4.25000706e-01 5.74995965e-01)	3
0.003638643    	alpha.water    	-5.01900074e-17	(1.93601195e+00 -4.75000659e-01 1.24998418e-01)	3	1.00000003e+00	(2.23832099e+00 2.50000914e-02 3.24998396e-01)	2
0.003638643    	k              	9.23640734e-02	(7.48347757e-01 2.07009432e-01 1.87420348e-02)	1	1.00070350e-01	(2.03692137e+00 -2.50001618e-02 6.24996512e-01)	3
0.003638643    	epsilon        	9.07142912e-02	(8.40303013e-01 -1.12678242e-01 1.87781445e-01)	1	2.10522019e+00	(7.48321654e-01 2.06959814e-01 6.87515549e-02)	1
0.0044177552   	p              	-9.81013186e+00	(2.28876383e+00 -4.75000031e-01 1.00000000e+00)	2	5.12276094e+03	(3.19483357e+00 4.75000008e-01 0.00000000e+00)	2
0.0044177552   	p_rgh          	-3.52625197e+00	(2.03690728e+00 3.25001038e-01 5.74996492e-01)	3	5.38872021e+03	(3.19483435e+00 4.25000000e-01 5.24999860e-01)	2
0.0044177552   	U              	(-7.16264536e-03 -5.44606615e-03 2.10412152e-05)	(6.55988957e-01 2.09123197e-01 6.24140037e-03)	1	(8.09580768e-02 1.22541493e-03 1.31413951e-01)	(1.93616222e+00 -4.75000326e-01 5.74995329e-01)	3
0.0044177552   	alpha.water    	-1.93927724e-16	(1.93601195e+00 -4.75000659e-01 1.24998418e-01)	3	1.00000003e+00	(2.23832962e+00 2.50000819e-02 3.74998259e-01)	2
0.0044177552   	k              	9.08776853e-02	(7.48347757e-01 2.07009432e-01 1.87420348e-02)	1	1.00094147e-01	(2.03692138e+00 2.50001664e-02 6.24996516e-01)	3
0.0044177552   	epsilon        	9.00083899e-02	(8.40303013e-01 -1.12678242e-01 1.87781445e-01)	1	2.06059298e+00	(7.48321654e-01 2.06959814e-01 6.87515549e-02)	1
0.0053343579   	p              	-9.81018415e+00	(2.28876440e+00 4.25000068e-01 1.00000000e+00)	2	5.12300158e+03	(3.19483360e+00 -4.25000000e-01 0.00000000e+00)	2
0.0053343579   	p_rgh          	-3.46871967e+00	(2.03690728e+00 3.25001038e-01 5.74996492e-01)	3	5.38836199e+03	(3.19483435e+00 4.25000000e-01 5.24999860e-01)	2
0.0053343579   	U              	(-8.56646255e-03 -6.50106091e-03 2.44641343e-05)	(6.55988957e-01 2.09123197e-01 6.24140037e-03)	1	(9.88989761e-02 8.87441236e-04 1.46458560e-01)	(1.93616222e+00 -4.75000326e-01 5.74995329e-01)	3
0.0053343579   	alpha.water    	-7.82045681e-16	(1.93601195e+00 -4.75000659e-01 1.24998418e-01)	3	1.00000004e+00	(2.23832099e+00 2.50000914e-02 3.24998396e-01)	2
0.0053343579   	k              	8.91861487e-02	(7.48347757e-01 2.07009432e-01 1.87420348e-02)	1	1.00124646e-01	(2.03692137e+00 -2.50001618e-02 6.24996512e-01)	3
0.0053343579   	epsilon        	8.95094124e-02	(8.40303013e-01 -1.12678242e-01 1.87781445e-01)	1	2.01156618e+00	(7.48321654e-01 2.06959814e-01 6.87515549e-02)	1
0.0063819037   	p              	-9.81025641e+00	(2.28876440e+00 -4.25000068e-01 1.00000000e+00)	2	5.12250370e+03	(3.19483357e+00 4.75000008e-01 0.00000000e+00)	2
0.0063819037   	p_rgh          	-3.35648247e+00	(2.03690715e+00 -2.75001141e-01 5.74996472e-01)	3	5.38787929e+03	(3.19483435e+00 -4.25000000e-01 5.24999860e-01)	2
0.0063819037   	U              	(-1.01970777e-02 -7.74980943e-03 2.98964848e-05)	(6.55988957e-01 2.09123197e-01 6.24140037e-03)	1	(1.20015715e-01 2.63659643e-04 1.64103067e-01)	(1.93616222e+00 -4.75000326e-01 5.74995329e-01)	3
0.0063819037   	alpha.water    	-2.83479328e-15	(1.93601195e+00 -4.75000659e-01 1.24998418e-01)	3	1.00000010e+00	(2.23832962e+00 2.50000819e-02 3.74998259e-01)	2
0.0063819037   	k              	8.73236466e-02	(7.48347757e-01 2.07009432e-01 1.87420348e-02)	1	1.00163715e-01	(2.03692137e+00 -2.50001618e-02 6.24996512e-01)	3
0.0063819037   	epsilon        	8.92945951e-02	(8.40367940e-01 -1.37870132e-01 1.87835567e-01)	1	1.95642230e+00	(7.48321654e-01 2.06959814e-01 6.87515549e-02)	1
0.0076199125   	p              	-9.81035600e+00	(2.28876440e+00 4.25000068e-01 1.00000000e+00)	2	5.12322176e+03	(3.19483360e+00 -4.25000000e-01 0.00000000e+00)	2
0.0076199125   	p_rgh          	-3.24205647e+00	(2.03690652e+00 1.25000817e-01 5.74996411e-01)	3	5.38718943e+03	(3.19483435e+00 4.25000000e-01 5.24999860e-01)	2
0.0076199125   	U              	(-1.20361429e-02 -9.12549903e-03 3.57940578e-05)	(6.55988957e-01 2.09123197e-01 6.24140037e-03)	1	(1.45069733e-01 1.10204225e-03 1.85376114e-01)	(1.93616222e+00 4.75000326e-01 5.74995329e-01)	3
0.0076199125   	alpha.water    	-1.11012184e-14	(1.93601195e+00 -4.75000659e-01 1.24998418e-01)	3	1.00000017e+00	(2.23832962e+00 2.50000819e-02 3.74998259e-01)	2
0.0076199125   	k              	8.52143443e-02	(7.48347757e-01 2.07009432e-01 1.87420348e-02)	1	1.00217423e-01	(2.03692137e+00 -2.50001618e-02 6.24996512e-01)	3
0.0076199125   	epsilon        	8.94314186e-02	(8.40367940e-01 -1.37870132e-01 1.87835567e-01)	1	1.89649354e+00	(7.48321654e-01 2.06959814e-01 6.87515549e-02)	1
0.0089954778   	p              	-9.81048906e+00	(2.28876440e+00 -4.25000068e-01 1.00000000e+00)	2	5.12249089e+03	(3.19483357e+00 4.75000008e-01 0.00000000e+00)	2
0.0089954778   	p_rgh          	-3.15477300e+00	(2.03690628e+00 -2.50001869e-02 5.74996389e-01)	3	5.38628200e+03	(3.19483435e+00 -4.25000000e-01 5.24999860e-01)	2
0.0089954778   	U              	(-1.42592932e-02 -1.08354973e-02 4.18284817e-05)	(6.55988957e-01 2.09123197e-01 6.24140037e-03)	1	(1.72059310e-01 2.55945953e-03 2.10621744e-01)	(1.93616222e+00 4.75000326e-01 5.74995329e-01)	3
0.0089954778   	alpha.water    	-3.54012133e-14	(1.93601195e+00 -4.75000659e-01 1.24998418e-01)	3	1.00000019e+00	(2.23833872e+00 2.50000753e-02 4.24998138e-01)	2
0.0089954778   	k              	8.29768520e-02	(7.48347757e-01 2.07009432e-01 1.87420348e-02)	1	1.00236038e-01	(1.93613953e+00 -2.50003606e-02 5.24995004e-01)	3
0.0089954778   	epsilon        	8.99784993e-02	(8.40367940e-01 -1.37870132e-01 1.87835567e-01)	1	1.82962384e+00	(7.48321654e-01 2.06959814e-01 6.87515549e-02)	1
0.010567552    	p              	-9.81066793e+00	(2.28876440e+00 -4.25000068e-01 1.00000000e+00)	2	5.12322738e+03	(3.19483360e+00 -4.25000000e-01 0.00000000e+00)	2
0.010567552    	p_rgh          	-3.18382980e+00	(2.03690628e+00 2.50001873e-02 5.74996389e-01)	3	5.38506407e+03	(3.19483435e+00 -4.25000000e-01 5.24999860e-01)	2
0.010567552    	U              	(-1.67901651e-02 -1.27825749e-02 5.11961513e-05)	(6.55988957e-01 2.09123197e-01 6.24140037e-03)	1	(2.03792387e-01 4.45327137e-03 2.41739522e-01)	(1.93616222e+00 4.75000326e-01 5.74995329e-01)	3
0.010567552    	alpha.water    	-1.17074873e-13	(1.93601195e+00 4.75000659e-01 1.24998418e-01)	3	1.00000028e+00	(2.23833872e+00 2.50000753e-02 4.24998138e-01)	2
0.010567552    	k              	8.05485943e-02	(7.48347757e-01 2.07009432e-01 1.87420348e-02)	1	1.00309667e-01	(1.98655272e+00 -3.75000977e-01 6.24996074e-01)	3
0.010567552    	epsilon        	9.09931467e-02	(8.40367940e-01 -1.37870132e-01 1.87835567e-01)	1	1.75983455e+00	(7.48321654e-01 2.06959814e-01 6.87515549e-02)	1
0.012139627    	p              	-9.81087711e+00	(2.28876440e+00 -4.25000068e-01 1.00000000e+00)	2	5.12250438e+03	(3.19483360e+00 4.25000000e-01 0.00000000e+00)	2
0.012139627    	p_rgh          	-3.21404908e+00	(2.03690628e+00 -2.50001869e-02 5.74996389e-01)	3	5.38363082e+03	(3.19483435e+00 4.25000000e-01 5.24999860e-01)	2
0.012139627    	U              	(-1.93242701e-02 -1.46734353e-02 5.61738202e-05)	(6.55988957e-01 2.09123197e-01 6.24140037e-03)	1	(2.36054903e-01 6.52862438e-03 2.72795609e-01)	(1.93616222e+00 4.75000326e-01 5.74995329e-01)	3
0.012139627    	alpha.water    	-2.44034916e-13	(1.93601195e+00 4.75000659e-01 1.24998418e-01)	3	1.00000034e+00	(2.23832099e+00 -2.50000909e-02 3.24998396e-01)	2
0.012139627    	k              	7.82414892e-02	(7.48347757e-01 2.07009432e-01 1.87420348e-02)	1	1.00544029e-01	(1.98655267e+00 -3.25001221e-01 6.24996048e-01)	3
0.012139627    	epsilon        	9.23125570e-02	(8.40367940e-01 -1.37870132e-01 1.87835567e-01)	1	1.68571747e+00	(7.48315690e-01 6.25006297e-03 1.66462137e-01)	1
0.013711702    	p              	-9.81111382e+00	(2.28876440e+00 -4.25000068e-01 1.00000000e+00)	2	5.12327721e+03	(3.19483360e+00 -4.25000000e-01 0.00000000e+00)	2
0.013711702    	p_rgh          	-3.26114166e+00	(2.03690628e+00 -2.50001869e-02 5.74996389e-01)	3	5.38200536e+03	(3.19483435e+00 -4.75000000e-01 5.24999858e-01)	2
0.013711702    	U              	(-2.16722344e-02 -1.64060281e-02 6.37091666e-05)	(6.55988957e-01 2.09123197e-01 6.24140037e-03)	1	(2.67623712e-01 8.49829418e-03 3.04705148e-01)	(1.93616222e+00 4.75000326e-01 5.74995329e-01)	3
0.013711702    	alpha.water    	-4.53369082e-13	(1.93601195e+00 -4.75000659e-01 1.24998418e-01)	3	1.00000028e+00	(2.23832962e+00 -2.50000816e-02 3.74998259e-01)	2
0.013711702    	k              	7.60482326e-02	(7.48347757e-01 2.07009432e-01 1.87420348e-02)	1	1.00830574e-01	(1.98655223e+00 -2.25001350e-01 6.24995992e-01)	3
0.013711702    	epsilon        	9.38513130e-02	(8.40367940e-01 -1.37870132e-01 1.87835567e-01)	1	1.61660368e+00	(7.48315690e-01 6.25006297e-03 1.66462137e-01)	1
0.015283776    	p              	-9.81138016e+00	(2.28876440e+00 -4.25000068e-01 1.00000000e+00)	2	5.12271183e+03	(3.19483360e+00 4.25000000e-01 0.00000000e+00)	2
0.015283776    	p_rgh          	-3.32825294e+00	(2.03690628e+00 2.50001873e-02 5.74996389e-01)	3	5.38016698e+03	(3.19483435e+00 4.75000000e-01 5.24999858e-01)	2
0.015283776    	U              	(-2.42523150e-02 -1.83637846e-02 6.98711953e-05)	(6.55988957e-01 2.09123197e-01 6.24140037e-03)	1	(2.98077850e-01 1.04988692e-02 3.37329067e-01)	(1.93616222e+00 4.75000326e-01 5.74995329e-01)	3
0.015283776    	alpha.water    	-7.76166248e-13	(1.93601195e+00 -4.75000659e-01 1.24998418e-01)	3	1.00000067e+00	(2.23832962e+00 -2.50000816e-02 3.74998259e-01)	2
0.015283776    	k              	7.39579290e-02	(8.30034071e-01 6.24999224e-03 1.87306826e-02)	1	1.01105802e-01	(1.98655267e+00 -3.25001221e-01 6.24996048e-01)	3
0.015283776    	epsilon        	9.55455473e-02	(8.40367940e-01 -1.37870132e-01 1.87835567e-01)	1	1.55208559e+00	(7.48315690e-01 6.25006297e-03 1.66462137e-01)	1
0.016855851    	p              	-9.81167467e+00	(2.28876440e+00 -4.25000068e-01 1.00000000e+00)	2	5.12296796e+03	(3.19483360e+00 4.25000000e-01 0.00000000e+00)	2
0.016855851    	p_rgh          	-3.38343921e+00	(2.03690673e+00 1.75001029e-01 5.74996423e-01)	3	5.37812507e+03	(3.19483435e+00 4.75000000e-01 5.24999858e-01)	2
0.016855851    	U              	(-2.67605747e-02 -2.02358931e-02 7.59164077e-05)	(6.55988957e-01 2.09123197e-01 6.24140037e-03)	1	(3.26958679e-01 1.24026889e-02 3.70506769e-01)	(1.93616222e+00 4.75000326e-01 5.74995329e-01)	3
0.016855851    	alpha.water    	-1.24710714e-12	(1.93601195e+00 -4.75000659e-01 1.24998418e-01)	3	1.00000069e+00	(2.23832962e+00 -2.50000816e-02 3.74998259e-01)	2
0.016855851    	k              	7.18973981e-02	(6.57891131e-01 -6.25008746e-03 6.23600989e-03)	1	1.01475390e-01	(1.98655267e+00 -3.25001221e-01 6.24996048e-01)	3
0.016855851    	epsilon        	9.59463847e-02	(5.63244537e-01 -1.88592523e-01 8.75729297e-02)	1	1.49175914e+00	(7.48315690e-01 6.25006297e-03 1.66462137e-01)	1
0.018427925    	p              	-9.81199623e+00	(2.28876440e+00 -4.25000068e-01 1.00000000e+00)	2	5.12339988e+03	(3.19483360e+00 4.25000000e-01 0.00000000e+00)	2
0.018427925    	p_rgh          	-3.42851825e+00	(2.03690696e+00 -2.25001151e-01 5.74996445e-01)	3	5.37587718e+03	(3.19483435e+00 -4.75000000e-01 5.24999858e-01)	2
0.018427925    	U              	(-2.92668919e-02 -2.21066244e-02 8.24252629e-05)	(6.55988957e-01 2.09123197e-01 6.24140037e-03)	1	(3.54411093e-01 1.40655465e-02 4.04449541e-01)	(1.93616222e+00 4.75000326e-01 5.74995329e-01)	3
0.018427925    	alpha.water    	-1.90220611e-12	(1.93601195e+00 -4.75000659e-01 1.24998418e-01)	3	1.00000057e+00	(2.23832962e+00 -2.50000816e-02 3.74998259e-01)	2
0.018427925    	k              	6.99106382e-02	(6.57891131e-01 -6.25008746e-03 6.23600989e-03)	1	1.01938095e-01	(1.98655267e+00 -3.25001221e-01 6.24996048e-01)	3
0.018427925    	epsilon        	9.57963784e-02	(5.63244537e-01 -1.88592523e-01 8.75729297e-02)	1	1.43527478e+00	(7.48315690e-01 6.25006297e-03 1.66462137e-01)	1
0.02           	p              	-9.81234575e+00	(2.28876440e+00 -4.25000068e-01 1.00000000e+00)	2	5.12381210e+03	(3.19483360e+00 4.25000000e-01 0.00000000e+00)	2
0.02           	p_rgh          	-3.47697447e+00	(2.03690715e+00 2.75001141e-01 5.74996472e-01)	3	5.37342340e+03	(3.19483435e+00 -4.75000000e-01 5.24999858e-01)	2
0.02           	U              	(-3.18066525e-02 -2.40026192e-02 8.87942847e-05)	(6.55988957e-01 2.09123197e-01 6.24140037e-03)	1	(3.79837027e-01 1.54886576e-02 4.39055705e-01)	(1.93616222e+00 4.75000326e-01 5.74995329e-01)	3
0.02           	alpha.water    	-2.78234898e-12	(1.93601195e+00 -4.75000659e-01 1.24998418e-01)	3	1.00000091e+00	(2.23832962e+00 -2.50000816e-02 3.74998259e-01)	2
0.02           	k              	6.80063210e-02	(6.57891131e-01 -6.25008746e-03 6.23600989e-03)	1	1.02498495e-01	(1.98655267e+00 -3.25001221e-01 6.24996048e-01)	3
0.02           	epsilon        	9.56702037e-02	(5.63244540e-01 1.88592527e-01 8.75729301e-02)	1	1.38231933e+00	(7.48315690e-01 6.25006297e-03 1.66462137e-01)	1
0.021818182    	p              	-9.81279241e+00	(2.28876440e+00 -4.25000068e-01 1.00000000e+00)	2	5.12541393e+03	(3.19483360e+00 4.25000000e-01 0.00000000e+00)	2
0.021818182    	p_rgh          	-3.69974343e+00	(2.03690715e+00 2.75001141e-01 5.74996472e-01)	3	5.37034544e+03	(3.19483435e+00 4.75000000e-01 5.24999858e-01)	2
0.021818182    	U              	(-3.48681715e-02 -2.63004761e-02 9.63422288e-05)	(6.55988957e-01 2.09123197e-01 6.24140037e-03)	1	(4.06857871e-01 1.70263793e-02 4.80369108e-01)	(1.93616222e+00 4.75000326e-01 5.74995329e-01)	3
0.021818182    	alpha.water    	-6.29142405e-12	(1.93601195e+00 -4.75000659e-01 1.24998418e-01)	3	1.00000080e+00	(2.23832962e+00 -2.50000816e-02 3.74998259e-01)	2
0.021818182    	k              	6.59036379e-02	(6.57891131e-01 -6.25008746e-03 6.23600989e-03)	1	1.03291564e-01	(1.98655223e+00 2.25001350e-01 6.24995992e-01)	3
0.021818182    	epsilon        	9.55526688e-02	(5.63244540e-01 1.88592527e-01 8.75729301e-02)	1	1.33260944e+00	(7.48315690e-01 6.25006297e-03 1.66462137e-01)	1
0.023838384    	p              	-9.81333536e+00	(2.28876440e+00 -4.25000068e-01 1.00000000e+00)	2	5.12670975e+03	(3.19483360e+00 4.25000000e-01 0.00000000e+00)	2
0.023838384    	p_rgh          	-3.80320795e+00	(2.03690715e+00 -2.75001141e-01 5.74996472e-01)	3	5.36662401e+03	(3.19483435e+00 4.75000000e-01 5.24999858e-01)	2
0.023838384    	U              	(-9.62499683e-01 -1.16158291e-01 -1.62399983e-02)	(1.93599871e+00 -4.75000690e-01 2.49996689e-02)	3	(4.30444523e-01 1.88802521e-02 5.25627987e-01)	(1.93616222e+00 4.75000326e-01 5.74995329e-01)	3
0.023838384    	alpha.water    	-1.29247111e-11	(1.93601195e+00 -4.75000659e-01 1.24998418e-01)	3	1.00000065e+00	(2.23828775e+00 -2.50001080e-02 2.49998485e-02)	2
0.023838384    	k              	6.36834591e-02	(6.57891131e-01 -6.25008746e-03 6.23600989e-03)	1	1.04352971e-01	(1.98655196e+00 1.75001222e-01 6.24995957e-01)	3
0.023838384    	epsilon        	9.54526174e-02	(5.63244540e-01 1.88592527e-01 8.75729301e-02)	1	1.27895092e+00	(7.60891261e-01 6.25004827e-03 1.66463669e-01)	1
0.026147186    	p              	-9.81401666e+00	(2.28876440e+00 -4.25000068e-01 1.00000000e+00)	2	5.12819289e+03	(3.19483360e+00 4.25000000e-01 0.00000000e+00)	2
0.026147186    	p_rgh          	-3.89854137e+00	(2.03690715e+00 2.75001141e-01 5.74996472e-01)	3	5.36198584e+03	(3.19483435e+00 4.75000000e-01 5.24999858e-01)	2
0.026147186    	U              	(-1.03412916e+00 -1.51069462e-01 -4.88005470e-02)	(1.93599871e+00 -4.75000690e-01 2.49996689e-02)	3	(4.44652143e-01 2.11725709e-02 5.72616468e-01)	(1.93616222e+00 4.75000326e-01 5.74995329e-01)	3
0.026147186    	alpha.water    	-8.16620017e-10	(1.88560837e+00 -4.75000918e-01 7.49989152e-02)	3	1.00000104e+00	(2.23828775e+00 -2.50001080e-02 2.49998485e-02)	2
0.026147186    	k              	6.12861375e-02	(6.57891131e-01 -6.25008746e-03 6.23600989e-03)	1	1.05795905e-01	(1.98655141e+00 2.50002149e-02 6.24995906e-01)	3
0.026147186    	epsilon        	9.51566428e-02	(8.40818559e-01 -1.38146778e-01 2.36922374e-01)	1	1.22368573e+00	(7.60891261e-01 6.25004827e-03 1.66463669e-01)	1
0.028917749    	p              	-9.81491969e+00	(2.28876440e+00 -4.25000068e-01 1.00000000e+00)	2	5.13009002e+03	(3.19483360e+00 -4.25000000e-01 0.00000000e+00)	2
0.028917749    	p_rgh          	-3.98245160e+00	(2.03690715e+00 2.75001141e-01 5.74996472e-01)	3	5.35589458e+03	(3.19483435e+00 4.75000000e-01 5.24999858e-01)	2
0.028917749    	U              	(-1.11422450e+00 -1.94275511e-01 -9.35756033e-02)	(1.93599871e+00 -4.75000690e-01 2.49996689e-02)	3	(4.72120930e-01 1.01231312e-02 4.94727963e-01)	(1.93616253e+00 4.25000931e-01 5.74995308e-01)	3
0.028917749    	alpha.water    	-1.54103791e-09	(1.88560837e+00 -4.75000918e-01 7.49989152e-02)	3	1.00000125e+00	(2.23828775e+00 -2.50001080e-02 2.49998485e-02)	2
0.028917749    	k              	5.85919315e-02	(6.57891131e-01 -6.25008746e-03 6.23600989e-03)	1	1.07837215e-01	(1.98655141e+00 2.50002149e-02 6.24995906e-01)	3
0.028917749    	epsilon        	9.46711014e-02	(8.77788136e-01 1.25560725e-01 2.24973932e-01)	1	1.16555698e+00	(7.60891261e-01 6.25004827e-03 1.66463669e-01)	1
0.031688312    	p              	-9.81590334e+00	(2.28876440e+00 -4.25000068e-01 1.00000000e+00)	2	5.13094878e+03	(3.19483360e+00 -4.25000000e-01 0.00000000e+00)	2
0.031688312    	p_rgh          	-3.98311881e+00	(2.03690715e+00 2.75001141e-01 5.74996472e-01)	3	5.34917962e+03	(3.19483435e+00 4.75000000e-01 5.24999858e-01)	2
0.031688312    	U              	(-1.18541163e+00 -2.38280403e-01 -1.40346532e-01)	(1.93599871e+00 -4.75000690e-01 2.49996689e-02)	3	(4.24129940e-01 2.91514965e-02 6.63974443e-01)	(1.93616222e+00 4.75000326e-01 5.74995329e-01)	3
0.031688312    	alpha.water    	-1.68830638e-09	(1.88560837e+00 -4.75000918e-01 7.49989152e-02)	3	1.00000149e+00	(2.23828775e+00 -2.50001080e-02 2.49998485e-02)	2
0.031688312    	k              	5.60743289e-02	(6.57891131e-01 -6.25008746e-03 6.23600989e-03)	1	1.10179607e-01	(1.98655141e+00 2.50002149e-02 6.24995906e-01)	3
0.031688312    	epsilon        	9.41839213e-02	(2.75989900e-01 -1.25010168e-01 9.74994044e-01)	0	1.10214725e+00	(7.60891261e-01 6.25004827e-03 1.66463669e-01)	1
0.034458874    	p              	-9.81696383e+00	(2.28876440e+00 -4.25000068e-01 1.00000000e+00)	2	5.13195626e+03	(3.19483360e+00 4.25000000e-01 0.00000000e+00)	2
0.034458874    	p_rgh          	-3.96491968e+00	(2.03690696e+00 2.25001151e-01 5.74996445e-01)	3	5.34184237e+03	(3.19483435e+00 4.75000000e-01 5.24999858e-01)	2
0.034458874    	U              	(-1.24885459e+00 -2.80400579e-01 -1.88903635e-01)	(1.93599871e+00 -4.75000690e-01 2.49996689e-02)	3	(3.94954731e-01 3.39764162e-02 6.95537001e-01)	(1.93616222e+00 4.75000326e-01 5.74995329e-01)	3
0.034458874    	alpha.water    	-2.35978557e-09	(1.93599871e+00 -4.75000690e-01 2.49996689e-02)	3	1.00000196e+00	(2.23828775e+00 -2.50001080e-02 2.49998485e-02)	2