# Probe 0 (0.82450002 0 0.021)
# Probe 1 (0.82450002 0 0.061)
# Probe 2 (0.82450002 0 0.101)
# Probe 3 (0.82450002 0 0.141)
# Probe 4 (0.8035 0 0.161)
# Probe 5 (0.7635 0 0.161)
# Probe 6 (0.7235 0 0.161)
# Probe 7 (0.6835 0 0.161)
#         Probe               0               1               2               3               4               5               6               7
#          Time
  0.00011976048       2.5206107       2.1254937       1.5479168       1.0499506      0.48248784      0.31998976       0.1798439     0.040225787
  0.00026278378       1.9588131       1.5708863        1.015596      0.54880698     0.068500817    -0.050187074     -0.15112806     -0.25200183
   0.0004329322        1.396308       1.0128278       0.4705485     0.022868162     -0.40263307     -0.49730925     -0.57969089     -0.66324578
  0.00063675582       1.0808461      0.69977314      0.16644094     -0.26613708     -0.64836014     -0.72031908     -0.78200894     -0.84575616
  0.00087879638      0.89744903      0.51856707   -0.0085357414     -0.43285434      -0.7928806     -0.85487164     -0.90819964     -0.96312444
   0.0011685116      0.84724293      0.46911327    -0.055280635     -0.47561996     -0.82475614      -0.8821288     -0.93324825     -0.98815069
   0.0015109023      0.76298467      0.38535824     -0.13749096     -0.55575392     -0.90263489      -0.9587647      -1.0074103      -1.0584468
   0.0019128392      0.77050261      0.39291075     -0.12995355     -0.54844424      -0.8972954     -0.95442943      -1.0038877      -1.0556221
   0.0023888171      0.78321882       0.4054369     -0.11815894     -0.53727173     -0.88534976     -0.94131301      -0.9904043      -1.0424446
   0.0029569198      0.82838729      0.45015571    -0.074952704     -0.49645265     -0.85337525     -0.91366752     -0.96644547      -1.0221636
    0.003638643      0.84685394      0.46873207     -0.05622167      -0.4776212     -0.83460885     -0.89404789     -0.94547483     -0.99894444
   0.0044177552      0.85808559      0.47998478    -0.044943535     -0.46629917     -0.82458772     -0.88419146     -0.93602054     -0.99038299
   0.0053343579      0.88616091      0.50769272    -0.018476075     -0.44142192     -0.80449207      -0.8654799     -0.91847985     -0.97413466
   0.0063819037       0.8975869      0.51931178   -0.0068885202     -0.43050995     -0.79709146     -0.86001288     -0.91459056     -0.97114394
   0.0076199125      0.88496472       0.5069411    -0.018212097     -0.44008374     -0.80448793     -0.86479991     -0.91660517     -0.97048659
   0.0089954778      0.91647511      0.53810009     0.011023883     -0.41379622     -0.78466524     -0.84826041     -0.90411123       -0.962633
    0.010567552      0.93154926      0.55317268     0.026057323     -0.39919094     -0.77619979     -0.84164976     -0.89792192      -0.9559651
    0.012139627      0.94182133      0.56358281     0.036481354     -0.38841871     -0.76142752     -0.82376675     -0.87872955     -0.93684108
    0.013711702      0.91448124      0.53695595     0.011997802     -0.41048486     -0.78262664      -0.8435589      -0.8955632     -0.94899591
    0.015283776      0.94700015      0.56890386     0.041645941     -0.38409637     -0.76403032     -0.82847917     -0.88477958     -0.94367074
    0.016855851      0.94106092      0.56328253     0.036817864     -0.38798071     -0.76686943     -0.82977593     -0.88428316     -0.94096285
    0.018427925      0.93903912      0.56143929     0.035193635     -0.38962098     -0.77025308      -0.8334347     -0.88817432     -0.94491626
           0.02      0.94309862      0.56550392     0.039012211     -0.38630793     -0.76926943     -0.83288897     -0.88809834     -0.94541945
    0.021818182      0.96385916      0.58605088     0.058556008     -0.36833652     -0.75626718     -0.82147335     -0.87833901     -0.93802118
    0.023838384      0.97166336      0.59411807     0.067098201     -0.35945183     -0.74765106      -0.8119405     -0.86780035     -0.92594545
    0.026147186      0.98406226      0.60654764     0.079195379     -0.34818842     -0.74018684     -0.80539709     -0.86216861     -0.92127002
    0.028917749      0.99699851      0.61954701     0.091921109     -0.33625054     -0.73221273     -0.79802345     -0.85529126     -0.91477788
    0.031688312        1.005335      0.62799835      0.10034055     -0.32820692     -0.72612263     -0.79144219     -0.84830704     -0.90739429
    0.034458874       1.0029517      0.62583469     0.098436615     -0.33018207     -0.72987466     -0.79473343     -0.85118687     -0.90986832
    0.037229437       1.0031012      0.62614466     0.098806944     -0.33019462     -0.73217307     -0.79688857     -0.85347793     -0.91235067
           0.04      0.99841373      0.62170449     0.094752928     -0.33414342     -0.73713065     -0.80095907     -0.85673781     -0.91485729
    0.042857143      0.99424456      0.61775494     0.091078567     -0.33795397     -0.74278793     -0.80623738     -0.86180487     -0.91971172
    0.046285714      0.98630753      0.61012539     0.083917139      -0.3450641      -0.7514567     -0.81424645     -0.86941307     -0.92698413
    0.049714286      0.97992549      0.60404273     0.078270478     -0.35060328      -0.7569722     -0.81807243     -0.87201462     -0.92853311
    0.053142857      0.96734658      0.59178648     0.066572762     -0.36214649      -0.7692489     -0.82907303     -0.88217767     -0.93795981
    0.056571429      0.95386146      0.57860662     0.053936707     -0.37463053     -0.78231241     -0.84074178     -0.89288557     -0.94785233
           0.06      0.93883239      0.56389829     0.039856791     -0.38845061     -0.79647147     -0.85337783     -0.90436901     -0.95825136
          0.064      0.92922748      0.55461616     0.030940708     -0.39773195     -0.80811085     -0.86458453     -0.91556852     -0.96949399
          0.068      0.91144949      0.53722322     0.014419764     -0.41365158      -0.8230794     -0.87686794      -0.9256271     -0.97708626
          0.072      0.90312424      0.52912651    0.0065670671     -0.42193121     -0.83270554     -0.88506193     -0.93348682     -0.98567485
          0.076      0.88814649      0.51442363   -0.0076872592     -0.43633547     -0.84759903     -0.89831215     -0.94568408     -0.99636765
           0.08         0.87223      0.49874276    -0.022784711     -0.45117462      -0.8626725     -0.91103718     -0.95686138      -1.0067287
          0.084      0.86113403      0.48792334    -0.033118547     -0.46166654     -0.87442316     -0.92121951     -0.96598132      -1.0148317
          0.088      0.85719897      0.48412738    -0.036853587     -0.46614089     -0.88157397     -0.92742239     -0.97179151      -1.0204283
          0.092      0.85963349      0.48662598    -0.034519444     -0.46488099     -0.88390666      -0.9291228     -0.97333989      -1.0219464
          0.096      0.86499927      0.49204841    -0.029267249     -0.46068729      -0.8830203     -0.92732227     -0.97118619      -1.0196011
            0.1      0.87318295      0.50015387    -0.021614162     -0.45428577     -0.88012626     -0.92343172     -0.96699501      -1.0156436
          0.104      0.87354027      0.50072759    -0.020814731     -0.45421674     -0.88306089     -0.92531792     -0.96830686      -1.0163286
          0.108      0.85646617      0.48412276    -0.036372809     -0.46928072     -0.89745039     -0.93695879     -0.97815017      -1.0245086
          0.112      0.87368603      0.50104624     -0.02059269     -0.45581608     -0.89046077     -0.93038116     -0.97264424      -1.0207872
          0.116      0.88988962      0.51719811   -0.0049857372       -0.441988     -0.88214302     -0.92176658     -0.96398898      -1.0118735
           0.12      0.90942915      0.53655259     0.013432233      -0.4258058     -0.87219769       -0.911741     -0.95436281      -1.0027913
          0.124      0.91382274      0.54101028     0.017664189     -0.42287407     -0.87276636     -0.91088816     -0.95288199      -1.0007707
          0.128      0.89071664      0.51838098   -0.0040372904     -0.44435534     -0.89388507     -0.92962131     -0.97097157      -1.0194133
          0.132      0.79789432      0.42671472    -0.092327735     -0.52884822      -0.9699521     -0.99906968      -1.0345163      -1.0765522
          0.136      0.81218133       0.4407326    -0.079334388     -0.51790219     -0.96389699     -0.99188036       -1.026645      -1.0678518
           0.14      0.88961564      0.51726288   -0.0060916449     -0.45028945     -0.91085029     -0.94271452     -0.98203228      -1.0289555
          0.144      0.84033068      0.46837691    -0.054049057     -0.49778709     -0.95743985     -0.98554879      -1.0216461      -1.0648545
          0.148      0.78977379      0.41852564     -0.10200189     -0.54399075     -0.99885586      -1.0218869      -1.0543914      -1.0944235
          0.152      0.67201042      0.30237694      -0.2133877     -0.64958595      -1.0904923      -1.1050375      -1.1310156      -1.1652673
          0.156      0.74659303      0.37604546     -0.14285816     -0.58432373      -1.0386803      -1.0561497      -1.0849274      -1.1219981
           0.16      0.83634735      0.46433449    -0.059377708     -0.50812074     -0.98001417      -1.0018432       -1.034774      -1.0757982
          0.164      0.88197033      0.50935569    -0.016628798     -0.46970258     -0.95357582     -0.97735823      -1.0123023      -1.0553738
          0.168      0.76333548      0.39237297     -0.12879648     -0.57617186      -1.0455564      -1.0603635      -1.0887979       -1.126259
          0.172       0.7099699       0.3400824     -0.17795811     -0.62210297      -1.0841645      -1.0927137      -1.1161893      -1.1488339
          0.176      0.77356255      0.40222081     -0.12048055     -0.57165285      -1.0508509      -1.0638748      -1.0917264      -1.1289118
           0.18      0.83607088      0.46357751    -0.062925088       -0.520162      -1.0137572      -1.0291795      -1.0593522      -1.0987205
          0.184      0.89963541      0.52594258   -0.0047061067     -0.46826001     -0.97543674     -0.99246904      -1.0245707      -1.0661915
          0.188      0.62310061      0.25351691     -0.26491425     -0.71278431      -1.1812621      -1.1793188      -1.1966693        -1.22492
          0.192      0.70282228       0.3320214     -0.19035452     -0.64477343      -1.1307907      -1.1332644      -1.1541898      -1.1853376
          0.196      0.85673796      0.48326722    -0.047620746     -0.51392898      -1.0261542      -1.0353693      -1.0625049      -1.1002836
            0.2      0.90140882      0.52672228   -0.0082505302     -0.48142962      -1.0108888      -1.0232968      -1.0533532      -1.0935899
          0.204      0.62737462      0.25689115     -0.26557396     -0.72245128      -1.2105736      -1.2024861      -1.2167657      -1.2429339
          0.208       0.6893336      0.31792676     -0.20754096     -0.66957088      -1.1713639      -1.1657808      -1.1820816      -1.2098403
          0.212      0.87089405      0.49626357    -0.039357588     -0.51588979      -1.0517662      -1.0564082      -1.0816951      -1.1180333
          0.216       1.0665312      0.68855342      0.14213275     -0.35005992      -0.9218376     -0.93605423      -0.9696183       -1.013951
           0.22      0.76645626      0.39283921     -0.14078418     -0.61682215      -1.1487805      -1.1428164      -1.1610833      -1.1918734
          0.224      0.78599891      0.41218253     -0.12227813     -0.60040666      -1.1364644      -1.1281156      -1.1445825      -1.1735013
          0.228      0.98849819      0.61072068     0.063801442     -0.43212746      -1.0104848      -1.0146551      -1.0418038      -1.0807142
          0.232       1.1924818      0.81070361      0.25096409     -0.26343128     -0.88327424     -0.89781404     -0.93411043     -0.98156625
          0.236      0.91104478      0.53351711    -0.013860398     -0.51292708      -1.0943519      -1.0880891      -1.1093543      -1.1433458
           0.24      0.94753528      0.56940634     0.019676116      -0.4834459      -1.0714762      -1.0624174      -1.0821317      -1.1150602
          0.244       1.1553372      0.77278318      0.20915848     -0.31369194     -0.94662383     -0.94923846     -0.97853351      -1.0201394
          0.248       1.4030479       1.0147286      0.43300068     -0.11549779     -0.80639279     -0.82418877     -0.86610454     -0.91932548
          0.252       1.0945931      0.71154884      0.14474348     -0.38545823      -1.0298349      -1.0223074      -1.0456805      -1.0829994
          0.256       1.1451056      0.76068594      0.18903158     -0.34868441      -1.0064019     -0.99679998       -1.019421      -1.0565407
           0.26       1.3575407      0.96776825       0.3792936      -0.1818902     -0.88992393     -0.89135411     -0.92314323     -0.96851611
          0.264       1.7032146       1.3051549       0.6909804     0.094502275     -0.68926262     -0.70941512     -0.75686571     -0.81653829
          0.268       1.3426269      0.95151272      0.35665154     -0.21653267     -0.94218352     -0.93124511     -0.95660538     -0.99780778
          0.272       1.4882717       1.0929788      0.48467814     -0.10748364     -0.87097662     -0.86425162     -0.89385557     -0.93929262
          0.276       1.7347405       1.3319251      0.70040936     0.077086186     -0.74754986     -0.75132266     -0.78986409     -0.84331418
           0.28       2.0950415       1.6813944       1.0165202       0.3486947      -0.5655441     -0.58779792     -0.64160561     -0.70892286
          0.284       1.5722103       1.1695686      0.53525436    -0.095374048     -0.91787919     -0.89372436      -0.9151791      -0.9559029
          0.288       1.8931589       1.4812265      0.81821808      0.14949387     -0.74827484      -0.7373573     -0.76999183     -0.82083695
          0.292       2.2039364       1.7804421       1.0818103      0.36692701     -0.61667806     -0.61969106     -0.66415692     -0.72587232
          0.296       2.5239541       2.0884742       1.3530273      0.59070265     -0.47730362     -0.48973543     -0.54337154     -0.61380621
            0.3       2.0069556       1.5828183      0.87763053       0.1512713     -0.82564179     -0.78793758     -0.80800785     -0.85189468
          0.304       2.4374911       1.9974175       1.2437875      0.45652757     -0.63069423      -0.6104186     -0.64520632     -0.70219119
         0.3072       2.6836057       2.2321658       1.4433167      0.61203389     -0.54451949     -0.52725947     -0.56652301     -0.62905298
         0.3104       3.0500978       2.5809399       1.7396134      0.84557163     -0.41084183     -0.40508794      -0.4540891     -0.52505193
         0.3136       2.2163929       1.7710192      0.99369202      0.17541837     -0.91427145     -0.83599682     -0.83608511     -0.86865241
         0.3168       2.6820633        2.218218       1.3853373      0.50047489     -0.70355852     -0.64405811     -0.65941544     -0.70572481
           0.32       3.0119076       2.5302047        1.643915      0.69626773     -0.60651123     -0.55700349     -0.58191045     -0.63737603
     0.32333333       3.5227034       3.0124178        2.044486        1.005645     -0.43182536     -0.39396226       -0.429325     -0.49365453
     0.32611111       3.5582175       3.0388851       2.0424631      0.97227926     -0.48827181     -0.43127924     -0.45579849     -0.51386948
     0.32888889       2.7350185       2.2433669       1.3180407       0.3298059     -0.95732045        -0.82701     -0.80387537     -0.82606784
     0.33166667       3.2529018       2.7354159       1.7337557      0.65993403     -0.75914465     -0.64747435     -0.63853122      -0.6731087
     0.33444444       3.6216733         3.07836        2.002174      0.84869542     -0.68088483     -0.57767952     -0.57654896     -0.61881137
     0.33722222       4.1896857       3.6096368       2.4308135       1.1708489     -0.49784737     -0.40352455     -0.41159525     -0.46132688
           0.34        4.734482        4.111366       2.8143229       1.4353195     -0.38165833     -0.29169316     -0.30598361     -0.36237814
         0.3425       3.5946583       3.0184352       1.8378823      0.58948092     -0.97165217     -0.78360349      -0.7349979     -0.74623089
          0.345        3.881132       3.2846658        2.040379      0.72813687     -0.90594329     -0.71383615     -0.66461019     -0.67687243
         0.3475        4.334389       3.7047855       2.3615528      0.95014622     -0.80658313     -0.62029581     -0.57669541     -0.59529177
           0.35       4.7846691       4.1135375       2.6529306       1.1307477     -0.75195796     -0.56679934      -0.5261736     -0.54812229
          0.352       5.2750924       4.5634678       2.9897714       1.3624807     -0.61890976     -0.43759892     -0.39585097     -0.41871453
          0.354       5.8037248       5.0380158       3.3221868       1.5683991     -0.54982405     -0.36574905     -0.32571563     -0.34888564
          0.356       5.8359826       5.0407174       3.2478432       1.4386237     -0.70744074     -0.49817889     -0.44608566     -0.46349765
          0.358       4.4194949       3.7128106       2.1205098      0.51644302      -1.2851325     -0.96712953     -0.84828949     -0.81987035
           0.36       4.9613095       4.2114159       2.4942216      0.77601424      -1.1678111     -0.83338515     -0.72280244     -0.69857096
          0.362       5.4184811       4.6245463       2.7757401      0.94092816      -1.1376852     -0.78270496     -0.67766188     -0.65786366
          0.364       5.9416217       5.0959063       3.0971495       1.1364409      -1.0666408     -0.69418702     -0.58780417     -0.56822366
          0.366       6.5431371       5.6278343       3.4408662       1.3288441      -1.0134281     -0.63527021     -0.52563882     -0.50548733
        0.36775       7.2456858        6.249215       3.8505113        1.572537     -0.90969491     -0.53911307      -0.4249769     -0.40502669
         0.3695       7.9853709       6.8894693       4.2477617       1.7914854     -0.85815769     -0.48529966     -0.36327828     -0.34161486
        0.37125       7.4475324       6.3605228       3.7291619       1.3283429      -1.2035438     -0.74676451     -0.58309162     -0.53543252
          0.373       6.3885949        5.393629       2.9238133      0.68175027      -1.5871121      -1.0530744     -0.84628399     -0.77278813
         0.3744       6.7895612       5.7421291       3.1240848      0.78366087       -1.554333      -1.0110317     -0.79520007     -0.71778171
         0.3758       7.1083609       6.0184233       3.2624691       0.8324735       -1.588974      -1.0219601     -0.79476525     -0.71135833
         0.3772       7.5101826       6.3676133       3.4449168      0.90546306      -1.6067232      -1.0264593     -0.78657142     -0.69735765
         0.3786       7.9968785       6.7893441       3.6662627      0.99922939      -1.6107853       -1.011092     -0.76239463     -0.66853477
           0.38       8.5728536       7.2862492       3.9271166       1.1144255      -1.6095063     -0.97278541     -0.72739089     -0.63232856
     0.38142857       9.3827723       7.9904266        4.325697        1.321251       -1.550717     -0.89749819     -0.64517851     -0.54658248
     0.38285714       10.399858       8.8650378       4.8090885       1.5597027      -1.5024592     -0.84005509     -0.58338742     -0.48177898
     0.38417582       11.349954       9.6647675       5.2192118       1.7510413      -1.4625617     -0.78480209      -0.5218235     -0.41570706
     0.38549451       12.171938       10.295508       5.4480481       1.7920142      -1.5446681     -0.84373317     -0.57370885     -0.46707422
      0.3867033       10.321223       8.6010381       4.0917981      0.80378443       -2.067813      -1.2401385     -0.90400224     -0.75689665
     0.38791209       10.444072       8.6387966       3.9821444      0.67792521      -2.1564665      -1.2844688     -0.92958969      -0.7772688
     0.38912088       11.280223       9.2776657       4.2517687      0.77160108      -2.1842643      -1.3000729     -0.94282979     -0.78881176
     0.39020879       11.783142       9.6509741       4.3766255      0.79536247      -2.2065269      -1.2938174     -0.92901051     -0.76559685
      0.3912967       12.407767       10.133871       4.5671746      0.86400557      -2.2286752      -1.2910496     -0.90876912     -0.73833146
     0.39238462       13.073068       10.651714       4.7608755      0.92066879      -2.2541222      -1.3022591     -0.90803183     -0.73221611
     0.39347253       13.785003       11.200602       4.9506186      0.96754758      -2.2849006      -1.3140612     -0.90735856     -0.72405028
     0.39440502       14.138116        11.44331       4.9723117      0.93027249      -2.3176154      -1.3211034     -0.90368238     -0.71325254
     0.39533752       14.778394       11.918124       5.1147657      0.95945068      -2.3900048      -1.3445981     -0.90674802     -0.70446809
     0.39627002       15.526539       12.475704       5.2977274       1.0089897      -2.3861138      -1.3221441     -0.87328544     -0.66333923
     0.39720251       16.520493        13.23178       5.5871453       1.1168336      -2.4050425      -1.3061192     -0.84606719     -0.62860767
     0.39813501       17.673936       14.099873       5.9038792       1.2243794      -2.4213376       -1.280474     -0.80657999     -0.58032434
      0.3990675       18.925837       15.017901       6.1957087       1.2765994      -2.4784035      -1.2917563     -0.79635224     -0.55460011
     0.39953375       18.730907       14.801685       5.9874568       1.1178997      -2.5014685      -1.2007496     -0.71201899     -0.46239556
            0.4       19.327942        15.23783       6.0972013       1.1208821      -2.7655049      -1.3861195     -0.88119606     -0.63186904
     0.40054054       19.850588       15.586708       6.1255505       1.0649384      -2.8749087      -1.4929541     -0.97905994     -0.72606857
     0.40116827       20.455188       15.916613       6.0568497      0.93162024      -2.9625863      -1.5949237      -1.0718766     -0.81967824
     0.40186574       19.816784       15.098662       5.2287579      0.35745068      -3.1716946       -1.760146      -1.1888459     -0.91626843
     0.40262133       19.138878        14.34922       4.6364032     0.020424521      -3.2818231      -1.8204203      -1.2349043     -0.96145333
     0.40344889       19.461772       14.501635       4.6374997     0.025814636      -3.2780371      -1.8214963      -1.2307325     -0.95782014
     0.40423703       19.831751       14.748266       4.7235625     0.087069592      -3.3021539      -1.8259874      -1.2198686     -0.93856357
     0.40502518       20.595815       15.162803       4.7527971      0.07556375       -3.374649      -1.8629267      -1.2248374     -0.92574242
     0.40577392       21.143604       15.430359       4.6905573    -0.012752921      -3.4659602      -1.9093764      -1.2511451     -0.93699245
     0.40652266        22.24134       16.054515       4.7681576    -0.031271394      -3.5178536      -1.9450091      -1.2739063     -0.95098126
     0.40727141       23.328833       16.660401       4.8262583     -0.06671174      -3.5786413      -1.9863467      -1.3052018     -0.96795419
     0.40797855       24.009327       16.998449       4.7809185     -0.15431083      -3.6565837      -2.0357713      -1.3249001     -0.97781341
     0.40868569       25.260933       17.685431       4.8576438     -0.17983545      -3.7102897      -2.0724382      -1.3472261     -0.99066487
     0.40939284       26.470117       18.318456       4.8964911     -0.22562364      -3.7708108      -2.1091353      -1.3651597     -0.99161679
     0.41005579       27.094527       18.618924       4.8412328     -0.30091561      -3.8194152      -2.1336766      -1.3831605     -0.98842377
     0.41071873        28.57164       19.417008       4.9370731     -0.31449152       -3.837298      -2.1403614      -1.3606956     -0.97007115
     0.41138168       29.912947       20.114104       4.9762248     -0.35332431      -3.9176601      -2.1944197      -1.3847105     -0.97354404
     0.41204463       31.494516       20.975329       5.0895253     -0.35236385      -3.9319068      -2.1942989      -1.3718993     -0.94496745
     0.41265658       32.211999       21.288676       4.9766024      -0.4735954      -4.0154558      -2.2537411      -1.3987083     -0.95835854
     0.41326853       33.866542       22.186294       5.0898462     -0.47047735      -4.0391833      -2.2666049      -1.3967442     -0.94779939
     0.41388048       35.661544       23.235738       5.3100046     -0.40224005      -4.0326174      -2.2543018      -1.3670328      -0.9043264
     0.41449244       37.921799       24.576842       5.5879302     -0.33608141      -4.0436924      -2.2713963      -1.3792814     -0.91722351
     0.41504319       38.610176       24.936281       5.5337892     -0.39574253      -4.0951801      -2.3276592      -1.4414943     -0.99451795
     0.41559395       39.104991       25.060187       5.2264315     -0.62200506      -4.2118163      -2.4318438      -1.5358109      -1.0883726
      0.4161447       38.136233       24.510689       4.8312249      -0.8154983      -4.2598852      -2.4652984      -1.5566969      -1.1080717
     0.41669546       40.105795       25.723613       5.1109226     -0.74248354      -4.2733949      -2.4885199      -1.5758429      -1.1427967
     0.41724622        43.01558       27.442061       5.4507196     -0.68965695      -4.2978431      -2.5128082      -1.6062743      -1.1577363
     0.41779697       46.668027       29.102212       5.5919037     -0.70429221      -4.3220067      -2.5399671       -1.618222      -1.1706424
     0.41834773       47.789709       29.411818       5.5068841     -0.72538043      -4.3303882      -2.5517582      -1.6204532      -1.1655894
      0.4187608       45.423589       28.128944       4.9226075     -0.97644141      -4.3892699      -2.5605516      -1.6080948      -1.1433463
     0.41917387       47.566479       29.106753       5.0069308      -0.9432198       -4.401501      -2.5783436      -1.6339461      -1.1773782
     0.41958693       48.264619        29.52365       4.9624214     -0.98197627      -4.4494883      -2.6114115      -1.6498443      -1.1822055
           0.42       49.555454       30.208588       4.9535909     -0.99015185      -4.4355368      -2.5954804      -1.6309194      -1.1643302
     0.42046512       52.696684       31.684747       5.2046796     -0.88047179      -4.3757986      -2.5503834      -1.5807682      -1.1122074
     0.42097919       55.693346        32.92156        5.318095      -0.8536095      -4.3824555      -2.5748741      -1.5978223      -1.1227939
     0.42149327       57.399041       33.595817        5.217588     -0.93687345      -4.4118377      -2.6022879      -1.6086669      -1.1214838
     0.42199345       59.063548       34.360783       5.1934277     -0.95576846      -4.4094107      -2.6026208      -1.6028591      -1.1139732
     0.42249363       61.470788       35.633559       5.4332653     -0.82247951      -4.3584176       -2.577744      -1.5859001      -1.1140226
     0.42297992       62.569327         36.3642       5.5506006     -0.78021345      -4.3837797      -2.5976081      -1.5946086      -1.1186933
     0.42346621       65.247332       37.963689       5.6829214     -0.79585754      -4.3976225      -2.5982807      -1.5964702      -1.1112052
      0.4239525       68.469901       39.925949       5.9771483     -0.75185525      -4.4107527      -2.6312478      -1.6134008      -1.1139794
     0.42442448       71.799285       41.247447       5.9175795     -0.89389474      -4.4864173      -2.6965063      -1.6540522      -1.1327803
     0.42489647       75.595596       43.011633       5.9921157      -1.0032404      -4.5363724      -2.7291819      -1.6680274      -1.1348973
     0.42536845       79.151491       44.870286       6.1334016      -1.0567568       -4.578031      -2.7576824      -1.6811588      -1.1357882
     0.42582569       81.915521       46.665569       6.3364036      -1.0999727      -4.6282725      -2.7941674      -1.7007663      -1.1426771
     0.42628292       86.334363       49.365694       6.8846937     -0.98545909      -4.6437312      -2.8031668      -1.7000887      -1.1367756
     0.42674016       97.050213       53.644167        7.352883      -1.0038628      -4.7044382       -2.845149      -1.7159167      -1.1266029
      0.4271974        107.3769       56.147481       7.3942186      -1.1695173      -4.8034026      -2.9193574       -1.764295      -1.1686869
     0.42763886       111.70639       56.393108       7.3580056      -1.2867737      -4.8532424      -2.9573842      -1.7851088      -1.1800664
     0.42808033       116.15244       56.741443       7.4114807       -1.324365      -4.8765454      -2.9649979      -1.7836911      -1.1686913
      0.4285218       119.70795       56.438279       7.3517476      -1.4114802      -4.9111201      -2.9481257      -1.7698025      -1.1577768
     0.42896327       123.52408       56.343663       7.3326033      -1.5486722       -4.983943       -2.980547      -1.7859468       -1.159608
     0.42940474        127.8573       56.793655       7.5060471      -1.5870713      -5.0095619      -2.9950125      -1.7967512      -1.1729114
     0.42984621        132.7019       57.444345       7.7188876      -1.6626819      -5.0622603      -3.0432764      -1.8462045       -1.219678
     0.43028768       138.05603       58.391404       7.9533569      -1.7833407       -5.161007       -3.116091      -1.9080932      -1.2975958
     0.43072915       143.85558       59.539851       8.2077865      -1.9134393       -5.269278      -3.1993968      -1.9767881      -1.3749262