# Probe 0 (0.82450002 0 0.021)
# Probe 1 (0.82450002 0 0.061)
# Probe 2 (0.82450002 0 0.101)
# Probe 3 (0.82450002 0 0.141)
# Probe 4 (0.8035 0 0.161)
# Probe 5 (0.7635 0 0.161)
# Probe 6 (0.7235 0 0.161)
# Probe 7 (0.6835 0 0.161)
#         Probe               0               1               2               3               4               5               6               7
#          Time
  0.00011976048       2.7043587       2.6772737       2.5916625        2.466727       2.1171346       1.9529983       1.8130168       1.6787257
  0.00026278378       2.1425611       2.1226663       2.0593418       1.9655834       1.7031475       1.5828215       1.4820448       1.3864981
   0.0004329322        1.580056       1.5646078       1.5142942       1.4396446       1.2320137       1.1356993        1.053482      0.97525411
  0.00063675582       1.2645941       1.2515531       1.2101867       1.1506393      0.98628659      0.91268945      0.85116392      0.79274373
  0.00087879638       1.0811971       1.0703471         1.03521      0.98392207      0.84176613      0.77813689      0.72497321      0.67537546
   0.0011685116        1.030991       1.0208933       0.9884651      0.94115645      0.80989059      0.75087972      0.69992461       0.6503492
   0.0015109023       0.9467327      0.93713825      0.90625477      0.86102249      0.73201184      0.67424382      0.62576257      0.58005311
   0.0019128392      0.95425063      0.94469076      0.91379218      0.86833216      0.73735133      0.67857909      0.62928513       0.5828778
   0.0023888171      0.96696684      0.95721691      0.92558679      0.87950467      0.74929697      0.69169552      0.64276856      0.59605525
   0.0029569198       1.0121353       1.0019357      0.96879303      0.92032376      0.78127148      0.71934101      0.66672738      0.61633628
    0.003638643        1.030602       1.0205121      0.98752406       0.9391552      0.80003788      0.73896063      0.68769802      0.63955545
   0.0044177552       1.0418336       1.0317648      0.99880219      0.95047723      0.81005901      0.74881706      0.69715232       0.6481169
   0.0053343579       1.0699089       1.0594727       1.0252697      0.97535448      0.83015466      0.76752862        0.714693      0.66436523
   0.0063819037       1.0813349       1.0710918       1.0368572      0.98626645      0.83755527      0.77299565      0.71858229      0.66735595
   0.0076199125       1.0687127       1.0587211       1.0255336      0.97669266       0.8301588      0.76820861      0.71656768       0.6680133
   0.0089954778       1.1002231       1.0898801       1.0547696       1.0029802      0.84998149      0.78474811      0.72906162       0.6758669
    0.010567552       1.1152973       1.1049527       1.0698031       1.0175855      0.85844694      0.79135877      0.73525093       0.6825348
    0.012139627       1.1255694       1.1153628       1.0802271       1.0283577      0.87321921      0.80924178       0.7544433      0.70165881
    0.013711702       1.0982293        1.088736       1.0557435       1.0062915      0.85202009      0.78944963      0.73760966      0.68950399
    0.015283776       1.1307482       1.1206839       1.0853917         1.03268      0.87061641      0.80452935      0.74839328      0.69482915
    0.016855851       1.1248089       1.1150625       1.0805636       1.0287957       0.8677773      0.80323259       0.7488897      0.69753704
    0.018427925       1.1227871       1.1132193       1.0789394       1.0271554      0.86439365      0.79957383      0.74499853      0.69358363
           0.02       1.1268466       1.1172839       1.0827579       1.0304685       0.8653773      0.80011956      0.74507451      0.69308044
    0.021818182       1.1476072       1.1378309       1.1023017       1.0484399      0.87837955      0.81153517      0.75483385      0.70047871
    0.023838384       1.1554114       1.1458981       1.1108439       1.0573246      0.88699567      0.82106802      0.76537251      0.71255444
    0.026147186       1.1678103       1.1583276       1.1229411        1.068588      0.89445989      0.82761144      0.77100424      0.71722988
    0.028917749       1.1807465        1.171327       1.1356668       1.0805259        0.902434      0.83498507      0.77788159      0.72372201
    0.031688312        1.189083       1.1797784       1.1440863       1.0885695       0.9085241      0.84156634      0.78486582       0.7311056
    0.034458874       1.1866997       1.1776147       1.1421823       1.0865943      0.90477207      0.83827509      0.78198598      0.72863157
    0.037229437       1.1868492       1.1779247       1.1425527       1.0865818      0.90247366      0.83611996      0.77969492      0.72614922
           0.04       1.1821617       1.1734845       1.1384987        1.082633      0.89751608      0.83204945      0.77643505       0.7236426
    0.042857143       1.1779926        1.169535       1.1348243       1.0788224       0.8918588      0.82677115      0.77136798      0.71878817
    0.046285714       1.1700556       1.1619054       1.1276629       1.0717123      0.88319003      0.81876208      0.76375978      0.71151576
    0.049714286       1.1636735       1.1558227       1.1220162       1.0661731      0.87767453       0.8149361      0.76115823      0.70996678
    0.053142857       1.1510946       1.1435665       1.1103185       1.0546299      0.86539783       0.8039355      0.75099518      0.70054008
    0.056571429       1.1376095       1.1303866       1.0976824       1.0421459      0.85233432      0.79226675      0.74028729      0.69064756
           0.06       1.1225804       1.1156783       1.0836025       1.0283258      0.83817527      0.77963069      0.72880384      0.68024853
          0.064       1.1129755       1.1063962       1.0746864       1.0190445      0.82653588        0.768424      0.71760434       0.6690059
          0.068       1.0951975       1.0890032       1.0581655       1.0031248      0.81156733      0.75614059      0.70754576      0.66141363
          0.072       1.0868723       1.0809065       1.0503128      0.99484519      0.80194119       0.7479466      0.69968604      0.65282505
          0.076       1.0718945       1.0662036       1.0360585      0.98044093       0.7870477      0.73469637      0.68748877      0.64213224
           0.08        1.055978       1.0505228        1.020961      0.96560178      0.77197423      0.72197135      0.67631148      0.63177117
          0.084       1.0448821       1.0397034       1.0106272      0.95510987      0.76022357      0.71178901      0.66719154      0.62366822
          0.088        1.040947       1.0359074       1.0068921      0.95063551      0.75307276      0.70558613      0.66138134       0.6180716
          0.092       1.0433815        1.038406       1.0092263      0.95189541      0.75074007      0.70388572      0.65983296      0.61655346
          0.096       1.0487473       1.0438284       1.0144785      0.95608912      0.75162643      0.70568625      0.66198666      0.61889882
            0.1        1.056931       1.0519339       1.0221316      0.96249063      0.75452047      0.70957681      0.66617785       0.6228563
          0.104       1.0572883       1.0525076        1.022931      0.96255966      0.75158585       0.7076906      0.66486599      0.62217128
          0.108       1.0402142       1.0359028       1.0073729      0.94749568      0.73719634      0.69604974      0.65502268       0.6139913
          0.112       1.0574341       1.0528263        1.023153      0.96096032      0.74418596      0.70262737      0.66052862      0.61771271
          0.116       1.0736376       1.0689781         1.03876       0.9747884      0.75250371      0.71124194      0.66918388      0.62662636
           0.12       1.0931772       1.0883326        1.057178      0.99097061      0.76244904      0.72126752      0.67881005      0.63570856
          0.124       1.0975708       1.0927903       1.0614099      0.99390233      0.76188037      0.72212037      0.68029087      0.63772919
          0.128       1.0744647        1.070161       1.0397084      0.97242106      0.74076166      0.70338722      0.66220128      0.61908655
          0.132      0.98164234      0.97849472        0.951418      0.88792818      0.66469463      0.63393884      0.59865656      0.56194768
          0.136      0.99592936       0.9925126      0.96441134      0.89887422      0.67074974      0.64112816      0.60652781      0.57064811
           0.14       1.0733637       1.0690429       1.0376541      0.96648696      0.72379644      0.69029401      0.65114057      0.60954444
          0.144       1.0240787       1.0201569      0.98969667      0.91898931      0.67720688      0.64745973      0.61152678      0.57364537
          0.148      0.97352181      0.97030565      0.94174384      0.87278565      0.63579087      0.61112162      0.57878143      0.54407641
          0.152      0.85575845      0.85415695      0.83035803      0.76719045      0.54415447      0.52797107      0.50215729      0.47323264
          0.156      0.93034105      0.92782547      0.90088757      0.83245267      0.59596644      0.57685886      0.54824543      0.51650178
           0.16       1.0200954       1.0161145      0.98436802      0.90865567      0.65463256      0.63116535       0.5983989      0.56270173
          0.164       1.0657184       1.0611357       1.0271169      0.94707382      0.68107091      0.65565029      0.62087056      0.58312605
          0.168      0.94708351      0.94415298      0.91494925      0.84060455      0.58909029      0.57264506      0.54437495      0.51224093
          0.172      0.89371792      0.89186241      0.86578762      0.79467343       0.5504822       0.5402948      0.51698353      0.48966599
          0.176      0.95731057      0.95400081      0.92326518      0.84512355      0.58379582      0.56913368      0.54144641      0.50958806
           0.18       1.0198189       1.0153575      0.98082064      0.89661441      0.62088958      0.60382903      0.57382069      0.53977943
          0.184       1.0833834       1.0777226       1.0390396       0.9485164      0.65920999      0.64053949      0.60860211      0.57230843
          0.188      0.80684863      0.80529691      0.77883148      0.70399209      0.45338458      0.45368973      0.43650353      0.41357988
          0.192       0.8865703      0.88380141      0.85339121      0.77200297      0.50385607      0.49974416      0.47898305      0.45316229
          0.196        1.040486       1.0350472      0.99612498      0.90284742      0.60849249      0.59763918      0.57066798      0.53821633
            0.2       1.0851568       1.0785023       1.0354952      0.93534679      0.62375793       0.6097117      0.57981967      0.54490995
          0.204      0.81112265      0.80867116      0.77817177      0.69432512      0.42407317      0.43052246      0.41640712      0.39556604
          0.208      0.87308162      0.86970676      0.83620477      0.74720552      0.46328284      0.46722774      0.45109123      0.42865959
          0.212       1.0546421       1.0480436       1.0043881      0.90088661      0.58288052      0.57660029      0.55147773      0.52046655
          0.216       1.2502792       1.2403334       1.1858785       1.0667165      0.71280913      0.69695429      0.66355456      0.62454893
           0.22      0.95020428      0.94461922      0.90296155      0.79995425      0.48586625      0.49019215      0.47208951      0.44662653
          0.224      0.96974693      0.96396254       0.9214676      0.81636974      0.49818237      0.50489288      0.48859032      0.46499863
          0.228       1.1722462       1.1625007       1.1075472      0.98464895      0.62416197      0.61835344      0.59136909      0.55778566
          0.232       1.3762298       1.3624836       1.2947098       1.1533451      0.75137249      0.73519448      0.69906242      0.65693364
          0.236       1.0947928       1.0852971       1.0298853      0.90384933      0.54029486      0.54491938      0.52381857      0.49515414
           0.24       1.1312833       1.1211863       1.0634218       0.9333305      0.56317053      0.57059109      0.55104112      0.52343965
          0.244       1.3390853       1.3245632       1.2529042       1.1030845       0.6880229      0.68377006      0.65463934      0.61836045
          0.248       1.5867959       1.5665086       1.4767464       1.3012786      0.82825394      0.80881975      0.76706831      0.71917441
          0.252       1.2783411       1.2633288       1.1884892       1.0313182      0.60481183      0.61070115      0.58749235      0.55550045
          0.256       1.3288536       1.3124659       1.2327773        1.068092      0.62824483      0.63620854      0.61375187      0.58195918
           0.26       1.5412887       1.5195483       1.4230393       1.2348862       0.7447228      0.74165441      0.71002963      0.66998378
          0.264       1.8869627       1.8569349       1.7347261       1.5112787      0.94538411       0.9235934      0.87630715       0.8219616
          0.268        1.526375       1.5032927       1.4003973       1.2002437      0.69246321      0.70176341      0.67656747      0.64069211
          0.272       1.6720197       1.6447588       1.5284239       1.3092928      0.76367011      0.76875691      0.73931728      0.69920727
          0.276       1.9184886       1.8837051       1.7441551       1.4938626      0.88709687      0.88168587      0.84330877      0.79518571
           0.28       2.2787895       2.2331744        2.060266       1.7654711       1.0691026       1.0452106      0.99156725      0.92957704
          0.284       1.7559583       1.7213486       1.5790001       1.3214024      0.71676754      0.73928417      0.71799375      0.68259699
          0.288        2.076907       2.0330065       1.8619638       1.5662703      0.88637189      0.89565122      0.86318102      0.81766294
          0.292       2.3876844       2.3322221        2.125556       1.7837034       1.0179687       1.0133175      0.96901594      0.91262757
          0.296       2.7077022       2.6402542        2.396773       2.0074791       1.1573431       1.1432731       1.0898013       1.0246937
            0.3       2.1907036       2.1345983       1.9213763       1.5680477      0.80900494      0.84507095      0.82516501      0.78660521
          0.304       2.6212392       2.5491975       2.2875332        1.873304       1.0039525       1.0225899      0.98796653       0.9363087
         0.3072       2.8673537       2.7839459       2.4870624       2.0288103       1.0901272       1.1057491       1.0666498       1.0094469
         0.3104       3.2338459       3.1327199       2.7833592        2.262348       1.2238049       1.2279206       1.1790838        1.113448
         0.3136       2.4001409       2.3227992       2.0374377       1.5921948      0.72037529       0.7970117      0.79708775      0.76984748
         0.3168       2.8658113        2.769998       2.4290831       1.9172513      0.93108822      0.98895042      0.97375741      0.93277508
           0.32       3.1956556       3.0819847       2.6876608       2.1130441       1.0281355        1.076005       1.0512624       1.0011239
     0.32333333       3.7064514       3.5641978       3.0882317       2.4224214       1.2028214       1.2390463       1.2038478       1.1448454
     0.32611111       3.7419655       3.5906652       3.0862089       2.3890557       1.1463749       1.2017293       1.1773744       1.1246304
     0.32888889       2.9187665       2.7951469       2.3617864       1.7465823      0.67732628      0.80599853      0.82929748      0.81243205
     0.33166667       3.4366498       3.2871959       2.7775014       2.0767104      0.87550208      0.98553418      0.99464163      0.96539119
     0.33444444       3.8054214         3.63014       3.0459198       2.2654718       0.9537619        1.055329       1.0566239       1.0196885
     0.33722222       4.3734338       4.1614168       3.4745592       2.5876253       1.1367994        1.229484       1.2215776        1.177173
           0.34         4.91823        4.663146       3.8580686       2.8520959       1.2529884       1.3413154       1.3271892       1.2761218
         0.3425       3.7784063       3.5702152        2.881628       2.0062573      0.66299456      0.84940504      0.89817496        0.892269
          0.345         4.06488       3.8364458       3.0841247       2.1449133      0.72870344      0.91917237      0.96856267      0.96162746
         0.3475       4.5181371       4.2565655       3.4052985       2.3669226       0.8280636       1.0127127       1.0564774       1.0432081
           0.35       4.9684171       4.6653175       3.6966763       2.5475241      0.88268877       1.0662092       1.1069993       1.0903776
          0.352       5.4588404       5.1152478       4.0335171       2.7792571        1.015737       1.1954096       1.2373219       1.2197854
          0.354       5.9874728       5.5897958       4.3659325       2.9851755       1.0848227       1.2672595       1.3074572       1.2896143
          0.356       6.0197306       5.5924974       4.2915889       2.8554001      0.92720599       1.1348296       1.1870872       1.1750022
          0.358       4.6032429       4.2645906       3.1642555       1.9332194      0.34951425      0.66587899      0.78488336      0.81862954
           0.36       5.1450575       4.7631959       3.5379673       2.1927906      0.46683564      0.79962338      0.91037041      0.93992893
          0.362       5.6022291       5.1763263       3.8194859       2.3577046      0.49696154      0.85030357      0.95551097      0.98063623
          0.364       6.1253698       5.6476863       4.1408953       2.5532173      0.56800593       0.9388215       1.0453687       1.0702762
          0.366       6.7268851       6.1796143       4.4846119       2.7456205      0.62121859      0.99773832        1.107534       1.1330126
        0.36775       7.4294339       6.8009951        4.894257       2.9893134      0.72495182       1.0938955        1.208196       1.2334732
         0.3695        8.169119       7.4412493       5.2915074       3.2082618      0.77648904       1.1477089       1.2698946        1.296885
        0.37125       7.6312804       6.9123028       4.7729077       2.7451193      0.43110292      0.88624402       1.0500812       1.1030674
          0.373       6.5723429        5.945409        3.967559       2.0985267     0.047534622      0.57993408      0.78688887      0.86571176
         0.3744       6.9733092       6.2939091       4.1678305       2.2004373     0.080313723      0.62197678      0.83797278      0.92071818
         0.3758        7.292109       6.5702033       4.3062148       2.2492499     0.045672694      0.61104839      0.83840761      0.92714156
         0.3772       7.6939306       6.9193933       4.4886626       2.3222395     0.027923514      0.60654926      0.84660143      0.94114224
         0.3786       8.1806265       7.3411241       4.7100084       2.4160058     0.023861393      0.62191652      0.87077822      0.96996512
           0.38       8.7566016       7.8380292       4.9708623       2.5312019     0.025140444      0.66022311      0.90578197       1.0061713
     0.38142857       9.5665203       8.5422066       5.3694428       2.7380274     0.083929757      0.73551034      0.98799434       1.0919174
     0.38285714       10.583606       9.4168178       5.8528343       2.9764791      0.13218749      0.79295343       1.0497854       1.1567209
     0.38417582       11.533702       10.216548       6.2629576       3.1678177      0.17208504      0.84820644       1.1113494       1.2227928
     0.38549451       12.355686       10.847288       6.4917938       3.2087906     0.089978649      0.78927535        1.059464       1.1714257
      0.3867033       10.504971       9.1528181       5.1355438       2.2205608     -0.43316627      0.39287003      0.72917062      0.88160324
     0.38791209        10.62782       9.1905766       5.0258901       2.0947016      -0.5218198      0.34853973      0.70358317      0.86123109
     0.38912088       11.463971       9.8294457       5.2955144       2.1883775     -0.54961754       0.3329356      0.69034307      0.84968813
     0.39020879        11.96689       10.202754       5.4203712       2.2121389     -0.57188013      0.33919113      0.70416235      0.87290304
      0.3912967       12.591515       10.685651       5.6109203        2.280782     -0.59402844      0.34195891      0.72440374      0.90016843
     0.39238462       13.256816       11.203494       5.8046212       2.3374452     -0.61947549      0.33074946      0.72514102      0.90628378
     0.39347253       13.968751       11.752382       5.9943643        2.384324      -0.6502539      0.31894729       0.7258143      0.91444961
     0.39440502       14.321864        11.99509       6.0160574       2.3470489      -0.6829687      0.31190517      0.72949047      0.92524735
     0.39533752       14.962142       12.469904       6.1585114       2.3762271      -0.7553581      0.28841042      0.72642484      0.93403181
     0.39627002       15.710287       13.027484       6.3414731       2.4257661     -0.75146708      0.31086444      0.75988742      0.97516066
     0.39720251       16.704241        13.78356       6.6308911         2.53361     -0.77039573      0.32688933      0.78710567       1.0098922
     0.39813501       17.857684       14.651653       6.9476249       2.6411558     -0.78669087       0.3525345      0.82659287       1.0581756
      0.3990675       19.109585       15.569681       7.2394545       2.6933758     -0.84375677       0.3412522      0.83682062       1.0838998
     0.39953375       18.914655       15.353465       7.0312026       2.5346761     -0.86682174      0.43225894      0.92115386       1.1761043
            0.4        19.51169        15.78961       7.1409471       2.5376585      -1.1308582      0.24688903       0.7519768       1.0066309
     0.40054054       20.034336       16.138488       7.1692962       2.4817148       -1.240262      0.14005443      0.65411292      0.91243132
     0.40116827       20.638936       16.468393       7.1005954       2.3483966      -1.3279395     0.038084839      0.56129625      0.81882165
     0.40186574       20.000532       15.650442       6.2725037       1.7742271      -1.5370478      -0.1271375      0.44432699      0.72223147
     0.40262133       19.322626          14.901       5.6801491       1.4372009      -1.6471764      -0.1874118      0.39826855      0.67704656
     0.40344889        19.64552       15.053415       5.6812457        1.442591      -1.6433903     -0.18848773      0.40244033      0.68067976
     0.40423703       20.015499       15.300046       5.7673086        1.503846      -1.6675072     -0.19297888      0.41330421      0.69993632
     0.40502518       20.779563       15.714583       5.7965432       1.4923402      -1.7400022     -0.22991818      0.40833548      0.71275747
     0.40577392       21.327352       15.982139       5.7343034       1.4040235      -1.8313134     -0.27636785      0.38202773      0.70150744
     0.40652266       22.425088       16.606295       5.8119039        1.385505      -1.8832069     -0.31200055      0.35926658      0.68751863
     0.40727141       23.512581       17.212181       5.8700046       1.3500647      -1.9439946     -0.35333813      0.32797101       0.6705457
     0.40797855       24.193075       17.550229        5.824665       1.2624656       -2.021937     -0.40276276      0.30827276      0.66068648
     0.40868569       25.444681       18.237211       5.9013904        1.236941       -2.075643     -0.43942969       0.2859468      0.64783502
     0.40939284       26.653865       18.870236        5.940238       1.1911528      -2.1361641     -0.47612675      0.26801313       0.6468831
     0.41005579       27.278275       19.170704       5.8849797       1.1158608      -2.1847684     -0.50066808      0.25001234      0.65007612
     0.41071873       28.755388       19.968788       5.9808204       1.1022849      -2.2026513     -0.50735284      0.27247729      0.66842875
     0.41138168       30.096695       20.665884       6.0199726       1.0634521      -2.2830134     -0.56141113      0.24846234      0.66495585
     0.41204463       31.678263       21.527109       6.1332737       1.0644126      -2.2972601     -0.56129037      0.26127353      0.69353244
     0.41265658       32.395747       21.840456       6.0203507      0.94318101       -2.380809     -0.62073255      0.23446452      0.68014135
     0.41326853        34.05029       22.738074       6.1335951      0.94629906      -2.4045366     -0.63359642      0.23642869       0.6907005
     0.41388048       35.845291       23.787518       6.3537543       1.0145364      -2.3979706     -0.62129326      0.26614004      0.73417349
     0.41449244       38.105547       25.128622        6.631681        1.080695      -2.4090456     -0.63838782      0.25389142      0.72127638
     0.41504319       38.793923       25.488061       6.5775399       1.0210339      -2.4605333     -0.69465072      0.19167858      0.64398194
     0.41559395       39.288738       25.611967       6.2701827      0.79477134      -2.5771696     -0.79883525     0.097361994      0.55012724
      0.4161447       38.319981       25.062469        5.874977      0.60127811      -2.6252385     -0.83228991      0.07647594      0.53042821
     0.41669546       40.289543       26.275393       6.1546761      0.67429286      -2.6387481     -0.85551135     0.057329993       0.4957032
     0.41724622       43.199327       27.993841       6.4944749      0.72711945      -2.6631964     -0.87979964     0.026898538      0.48076362
     0.41779697       46.851774       29.653992       6.6356612      0.71248419        -2.68736     -0.90695853     0.014950846      0.46785753
     0.41834773       47.973457       29.963598       6.5506444      0.69139737      -2.6957414     -0.91874965     0.012719646      0.47291045
      0.4187608       45.607337       28.680724       5.9663659         0.44034      -2.7546232     -0.92754306     0.025078017      0.49515363
     0.41917387       47.750227       29.658533       6.0506879      0.47356522      -2.7668543     -0.94533504  -0.00077325108      0.46112174
     0.41958693       48.448367        30.07543       6.0061777      0.43481242      -2.8148416     -0.97840298    -0.016671412      0.45629439
           0.42       49.739202       30.760368       5.9973475      0.42664071      -2.8008901     -0.96247183    0.0022534105      0.47416971
     0.42046512       52.880432       32.236527       6.2484408      0.53632536      -2.7411519     -0.91737483     0.052404633      0.52629247
     0.42097919       55.877094        33.47334       6.3618661      0.56319349      -2.7478087     -0.94186557     0.035350564      0.51570604
     0.42149327       57.582789       34.147597       6.2613661      0.47993749      -2.7771909     -0.96927937     0.024505918      0.51701606
     0.42199345       59.247296       34.912563       6.2372115      0.46105204       -2.774764      -0.9696123     0.030313758      0.52452671
     0.42249363       61.654536       36.185339        6.477059      0.59435203      -2.7237709     -0.94473548     0.047272774      0.52447732
     0.42297992       62.753075        36.91598       6.5944054      0.63663014       -2.749133     -0.96459961     0.038564212      0.51980657
     0.42346621        65.43108       38.515469       6.7267449      0.62100012      -2.7629757     -0.96527216     0.036702685      0.52729465
      0.4239525       68.653649       40.477729       7.0209979      0.66502086      -2.7761059     -0.99823931     0.019772076      0.52452052
     0.42442448       71.983033       41.799227       6.9614607       0.5230056      -2.8517706      -1.0634978    -0.020879374      0.50571958
     0.42489647       75.779344       43.563413        7.036039      0.41368799      -2.9017257      -1.0961734    -0.034854594      0.50360257
     0.42536845       79.335239       45.422066       7.1773707      0.36020245      -2.9433843      -1.1246738    -0.047985969       0.5027117
     0.42582569       82.099269       47.217349       7.3804138      0.31701509      -2.9936258      -1.1611589    -0.067593396       0.4958228
     0.42628292       86.518111       49.917474        7.928729      0.43155428      -3.0090845      -1.1701583    -0.066915863       0.5017243
     0.42674016       97.233961       54.195947       8.3969632      0.41316659      -3.0697915      -1.2121404    -0.082743807      0.51189702
      0.4271974       107.56065       56.699261       8.4383507      0.24751034      -3.1687559      -1.2863489      -0.1311221      0.46981299
     0.42763886       111.89014       56.944888       8.4021638      0.13022709      -3.2185957      -1.3243757      -0.1519359      0.45843348
     0.42808033       116.33619       57.293223       8.4556958     0.092528456      -3.2418986      -1.3319894     -0.15051822      0.46980863
      0.4285218        119.8917       56.990059       8.3960393     0.005335575      -3.2764734      -1.3151172     -0.13662966      0.48072312
     0.42896327       123.70783       56.895443       8.3769706     -0.13185951      -3.3492963      -1.3475384     -0.15277395      0.47889185
     0.42940474       128.04105       57.345435        8.550494     -0.17024016      -3.3749152       -1.362004     -0.16357831      0.46558848
     0.42984621       132.88565       57.996218       8.7634201     -0.24581995      -3.4276135      -1.4102679     -0.21303163      0.41882186
     0.43028768       138.23978       58.943867       8.9979806     -0.36643444      -3.5263603      -1.4830824     -0.27492031      0.34090405
     0.43072915       144.03933       60.093258       9.2526293     -0.49647076      -3.6346313      -1.5663883     -0.34361526       0.2635737