# y+ ()        
# Time         	patch          	min            	max            	average        
0.02           	left	2.78364399e+02	2.79710123e+02	2.79148272e+02
0.02           	right	2.80415222e+02	4.15388489e+03	2.41049363e+03
0.02           	stlSurface	5.30754547e+01	8.46441753e+01	5.79421582e+01
0.02           	back	2.75978640e+02	4.13154709e+03	1.09380263e+03
0.02           	bottom	6.01157564e+01	4.13454150e+03	1.45243301e+03
0.02           	top	0.00000000e+00	8.62565655e+01	1.68476108e+01
0.02           	front	2.75978788e+02	4.13154705e+03	1.09380266e+03
0.04           	left	2.65601057e+02	2.67550557e+02	2.66879263e+02
0.04           	right	2.67718906e+02	3.97362056e+03	2.30477696e+03
0.04           	stlSurface	4.60238467e+01	7.94014416e+01	5.12126516e+01
0.04           	back	2.63445078e+02	3.96711057e+03	1.05395286e+03
0.04           	bottom	5.12696849e+01	3.98638954e+03	1.39490661e+03
0.04           	top	0.00000000e+00	1.22307727e+02	2.35319974e+01
0.04           	front	2.63444969e+02	3.96711079e+03	1.05395295e+03
0.06           	left	2.53982636e+02	2.56757270e+02	2.55931399e+02
0.06           	right	2.56224960e+02	3.81332199e+03	2.21023379e+03
0.06           	stlSurface	4.02921715e+01	7.61870140e+01	4.66883094e+01
0.06           	back	2.52142881e+02	3.82888662e+03	1.01784160e+03
0.06           	bottom	4.47871172e+01	3.90070258e+03	1.38116898e+03
0.06           	top	0.00000000e+00	1.48665866e+02	2.82190659e+01
0.06           	front	2.52142809e+02	3.82888728e+03	1.01784166e+03
0.08           	left	2.43363081e+02	2.47098721e+02	2.46091772e+02
0.08           	right	2.45774105e+02	3.66961766e+03	2.12504587e+03
0.08           	stlSurface	3.58016433e+01	7.40656666e+01	4.34883530e+01
0.08           	back	2.41889468e+02	3.72013245e+03	9.86954069e+02
0.08           	bottom	3.98046370e+01	3.86746998e+03	1.34617049e+03
0.08           	top	0.00000000e+00	1.69028213e+02	3.17460011e+01
0.08           	front	2.41888818e+02	3.72013045e+03	9.86954174e+02
0.1            	left	2.33614713e+02	2.38393468e+02	2.37188485e+02
0.1            	right	2.36226241e+02	3.53979977e+03	2.04774123e+03
0.1            	stlSurface	3.22478246e+01	7.25964174e+01	4.11290076e+01
0.1            	back	2.32440301e+02	3.64059322e+03	9.62345339e+02
0.1            	bottom	3.58534646e+01	3.90192984e+03	1.34680816e+03
0.1            	top	0.00000000e+00	1.85136580e+02	3.43611620e+01
0.1            	front	2.32439752e+02	3.64059306e+03	9.62345341e+02
0.12           	left	2.24602612e+02	2.30507392e+02	2.29095193e+02
0.12           	right	2.27471673e+02	3.42185687e+03	1.97722000e+03
0.12           	stlSurface	2.93670682e+01	7.15918340e+01	3.93415364e+01
0.12           	back	2.23789062e+02	3.59817834e+03	9.37635132e+02
0.12           	bottom	3.26506098e+01	3.95753255e+03	1.35749915e+03
0.12           	top	0.00000000e+00	2.09980941e+02	3.96346605e+01
0.12           	front	2.23788287e+02	3.59818630e+03	9.37635499e+02
0.14           	left	2.16242884e+02	2.23331706e+02	2.21708230e+02
0.14           	right	2.19416799e+02	3.31415147e+03	1.91258011e+03
0.14           	stlSurface	2.69860687e+01	7.09322837e+01	3.79533500e+01
0.14           	back	2.15832611e+02	3.57372167e+03	9.16216523e+02
0.14           	bottom	3.00033900e+01	4.02450989e+03	1.37445418e+03
0.14           	top	0.00000000e+00	2.16852176e+02	4.11979200e+01
0.14           	front	2.15832840e+02	3.57370589e+03	9.16217781e+02
0.16           	left	2.08486895e+02	2.16778713e+02	2.14938705e+02
0.16           	right	2.11980709e+02	3.21534222e+03	1.85307555e+03
0.16           	stlSurface	2.49847199e+01	7.05174613e+01	3.68431057e+01
0.16           	back	2.08333592e+02	3.55923700e+03	8.96374908e+02
0.16           	bottom	2.77782698e+01	4.11206665e+03	1.39744837e+03
0.16           	top	0.00000000e+00	2.21560297e+02	4.19763039e+01
0.16           	front	2.08332566e+02	3.55917798e+03	8.96376025e+02
0.18           	left	2.01271927e+02	2.10771403e+02	2.08713083e+02
0.18           	right	2.05096716e+02	3.12432374e+03	1.79808735e+03
0.18           	stlSurface	2.32786907e+01	7.03084911e+01	3.59393790e+01
0.18           	back	2.01124101e+02	3.55136572e+03	8.75297669e+02
0.18           	bottom	2.58814888e+01	4.20104594e+03	1.42558184e+03
0.18           	top	0.00000000e+00	2.24911014e+02	4.22302869e+01
0.18           	front	2.01122939e+02	3.55124923e+03	8.75297719e+02
0.2            	left	1.94543655e+02	2.05250258e+02	2.02969586e+02
0.2            	right	1.98709146e+02	3.04018076e+03	1.74709801e+03
0.2            	stlSurface	2.18076507e+01	7.02719788e+01	3.51941283e+01
0.2            	back	1.94400973e+02	3.56199984e+03	8.57418374e+02
0.2            	bottom	2.42459714e+01	4.29226112e+03	1.45799933e+03
0.2            	top	0.00000000e+00	2.25625046e+02	4.18435581e+01
0.2            	front	1.94399648e+02	3.56191493e+03	8.57417259e+02
0.22           	left	1.88254772e+02	2.00155661e+02	1.97654909e+02
0.22           	right	1.92771697e+02	2.96214829e+03	1.69967153e+03
0.22           	stlSurface	2.05259945e+01	7.03886372e+01	3.45759861e+01
0.22           	back	1.88116876e+02	3.58847446e+03	8.42726025e+02
0.22           	bottom	2.28210127e+01	4.38139673e+03	1.51378550e+03
0.22           	top	0.00000000e+00	2.50609158e+02	4.47032320e+01
0.22           	front	1.88115419e+02	3.58830499e+03	8.42723751e+02
0.24           	left	1.82364154e+02	1.95451892e+02	1.92727123e+02
0.24           	right	1.87246085e+02	2.88958138e+03	1.65543654e+03
0.24           	stlSurface	1.93990248e+01	7.07095468e+01	3.40813470e+01
0.24           	back	1.82230623e+02	3.62108668e+03	8.30002399e+02
0.24           	bottom	2.15680362e+01	4.49171255e+03	1.57225774e+03
0.24           	top	0.00000000e+00	2.41991341e+02	4.39394130e+01
0.24           	front	1.82229162e+02	3.62083606e+03	8.29999524e+02
0.26           	left	1.76835808e+02	1.91096811e+02	1.88151730e+02
0.26           	right	1.82100950e+02	2.82192499e+03	1.61406966e+03
0.26           	stlSurface	1.84006289e+01	7.13213214e+01	3.37209954e+01
0.26           	back	1.76706386e+02	3.65873941e+03	8.15852494e+02
0.26           	bottom	2.04580093e+01	4.57938166e+03	1.62064375e+03
0.26           	top	0.00000000e+00	2.35197567e+02	4.26411369e+01
0.26           	front	1.76704908e+02	3.65822012e+03	8.15849472e+02
0.28           	left	1.71638173e+02	1.87069990e+02	1.83900608e+02
0.28           	right	1.77307555e+02	2.75864688e+03	1.57528710e+03
0.28           	stlSurface	1.75102763e+01	7.23642751e+01	3.35211166e+01
0.28           	back	1.71512679e+02	3.73311452e+03	8.04151566e+02
0.28           	bottom	1.94681062e+01	4.65445533e+03	1.66730587e+03
0.28           	top	0.00000000e+00	2.29714865e+02	4.12180733e+01
0.28           	front	1.71511121e+02	3.73287218e+03	8.04148322e+02
0.3            	left	1.66743415e+02	1.83342286e+02	1.79949768e+02
0.3            	right	1.72840021e+02	2.69928694e+03	1.53883068e+03
0.3            	stlSurface	1.67114184e+01	7.40194326e+01	3.35137832e+01
0.3            	back	1.66621634e+02	3.81684462e+03	7.96233942e+02
0.3            	bottom	1.85799276e+01	4.72160363e+03	1.75113396e+03
0.3            	top	0.00000000e+00	2.54679843e+02	4.24341136e+01
0.3            	front	1.66619986e+02	3.81648650e+03	7.96229854e+02
0.32           	left	1.62124807e+02	1.79892047e+02	1.76276058e+02
0.32           	right	1.68671935e+02	2.64340952e+03	1.50443526e+03
0.32           	stlSurface	1.59906522e+01	7.65311634e+01	3.37428241e+01
0.32           	back	1.62006532e+02	3.88136100e+03	7.85288313e+02
0.32           	bottom	1.77785723e+01	4.80488682e+03	1.81051128e+03
0.32           	top	0.00000000e+00	2.42487091e+02	4.20325262e+01
0.32           	front	1.62004797e+02	3.88090322e+03	7.85284025e+02
0.34           	left	1.57761317e+02	1.76703348e+02	1.72861181e+02
0.34           	right	1.64782557e+02	2.59066245e+03	1.47186294e+03
0.34           	stlSurface	1.53376405e+01	8.02381085e+01	3.42792679e+01
0.34           	back	1.57646383e+02	3.95084044e+03	7.78293778e+02
0.34           	bottom	1.70525472e+01	4.89327681e+03	1.86301482e+03
0.34           	top	0.00000000e+00	2.33293177e+02	4.03557691e+01
0.34           	front	1.57644537e+02	3.95048828e+03	7.78289448e+02
0.36           	left	1.53633316e+02	1.73752750e+02	1.69687055e+02
0.36           	right	1.61153139e+02	2.54075652e+03	1.44084164e+03
0.36           	stlSurface	1.47429913e+01	8.58566245e+01	3.52894086e+01
0.36           	back	1.53521450e+02	4.03280245e+03	7.72620534e+02
0.36           	bottom	1.63914101e+01	4.96043580e+03	1.95013544e+03
0.36           	top	0.00000000e+00	2.52302520e+02	4.02597446e+01
0.36           	front	1.53519591e+02	4.03238098e+03	7.72615649e+02
0.38           	left	1.49723921e+02	1.71031207e+02	1.66737726e+02
0.38           	right	1.57768878e+02	2.49439209e+03	1.41103788e+03
0.38           	stlSurface	1.41999494e+01	9.54564642e+01	3.73348529e+01
0.38           	back	1.49614937e+02	4.08610528e+03	7.65975748e+02
0.38           	bottom	1.57876504e+01	5.02025161e+03	2.01446032e+03
0.38           	top	0.00000000e+00	2.39912832e+02	4.07645747e+01
0.38           	front	1.49613090e+02	4.08565709e+03	7.65971676e+02
0.4            	left	1.46017888e+02	1.68517131e+02	1.63998525e+02
0.4            	right	1.54617888e+02	2.45056077e+03	1.38194043e+03
0.4            	stlSurface	1.37027592e+01	1.16171363e+02	4.27587142e+01
0.4            	back	1.45911569e+02	4.14061043e+03	7.58411959e+02
0.4            	bottom	1.52348693e+01	5.10187957e+03	2.06959430e+03
0.4            	top	0.00000000e+00	2.30066816e+02	3.90278892e+01
0.4            	front	1.45909801e+02	4.14022673e+03	7.58408809e+02
0.42           	left	1.42501840e+02	1.66199858e+02	1.61454310e+02
0.42           	right	1.51691825e+02	2.40906902e+03	1.35257366e+03
0.42           	stlSurface	1.32468010e+01	1.79434420e+02	5.69100431e+01
0.42           	back	1.42398010e+02	4.19550425e+03	7.55221554e+02
0.42           	bottom	1.47279302e+01	5.15896372e+03	2.16549937e+03
0.42           	top	0.00000000e+00	2.46447668e+02	3.79029194e+01
0.42           	front	1.42396355e+02	4.19512395e+03	7.55215801e+02
0.44           	left	1.39163614e+02	1.64068943e+02	1.59087299e+02
0.44           	right	1.48984619e+02	2.36975771e+03	1.32043391e+03
0.44           	stlSurface	1.28273390e+01	1.28070020e+03	1.42853706e+02
0.44           	back	1.39062149e+02	4.20956472e+03	7.50234895e+02
0.44           	bottom	1.42615681e+01	5.22077025e+03	2.27933601e+03
0.44           	top	0.00000000e+00	2.33600602e+02	3.97715782e+01
0.44           	front	1.39060600e+02	4.20922318e+03	7.50229117e+02
0.46           	left	1.35991331e+02	1.62103126e+02	1.56871624e+02
0.46           	right	1.46490647e+02	2.33247779e+03	1.27556768e+03
0.46           	stlSurface	1.24436945e+01	3.62858604e+03	6.01215540e+02
0.46           	back	1.35892119e+02	4.28418105e+03	7.44603089e+02
0.46           	bottom	1.38350281e+01	5.28190007e+03	2.33795294e+03
0.46           	top	0.00000000e+00	2.24434430e+02	3.86767884e+01
0.46           	front	1.35890666e+02	4.28389565e+03	7.44596497e+02
0.48           	left	1.32977467e+02	1.60291574e+02	1.54790858e+02
0.48           	right	1.41867361e+02	2.29708891e+03	1.19043541e+03
0.48           	stlSurface	1.21283934e+01	3.76398889e+03	6.54895356e+02
0.48           	back	1.32880387e+02	4.35970713e+03	7.40997538e+02
0.48           	bottom	1.34844731e+01	5.39281177e+03	2.39297026e+03
0.48           	top	0.00000000e+00	2.17721221e+02	3.79282543e+01
0.48           	front	1.32879033e+02	4.35944313e+03	7.40988864e+02
0.5            	left	1.30117378e+02	1.58623958e+02	1.52816052e+02
0.5            	right	1.39988399e+02	2.26329966e+03	1.17103578e+03
0.5            	stlSurface	1.19493531e+01	3.88649679e+03	6.96950808e+02
0.5            	back	1.30022324e+02	4.42778102e+03	7.40094053e+02
0.5            	bottom	1.32854142e+01	5.43406470e+03	2.42117428e+03
0.5            	top	0.00000000e+00	2.13064808e+02	3.74360378e+01
0.5            	front	1.30021061e+02	4.42754721e+03	7.40084078e+02
0.52           	left	1.27416394e+02	1.57088550e+02	1.50928853e+02
0.52           	right	1.38221137e+02	2.23081557e+03	1.15223065e+03
0.52           	stlSurface	1.19796240e+01	4.18269295e+03	7.89052764e+02
0.52           	back	1.27323220e+02	4.48923206e+03	7.39071779e+02
0.52           	bottom	1.33190698e+01	5.44277716e+03	2.45393007e+03
0.52           	top	0.00000000e+00	2.31761060e+02	4.08195361e+01
0.52           	front	1.27322076e+02	4.48902841e+03	7.39059875e+02
0.54           	left	1.24890015e+02	1.55650512e+02	1.49125685e+02
0.54           	right	1.36559599e+02	2.19942848e+03	1.13368418e+03
0.54           	stlSurface	1.22055434e+01	4.20172478e+03	8.39827935e+02
0.54           	back	1.24798719e+02	4.54237275e+03	7.38902093e+02
0.54           	bottom	1.35702493e+01	5.90797562e+03	2.48446751e+03
0.54           	top	0.00000000e+00	2.21864949e+02	4.13752634e+01
0.54           	front	1.24797567e+02	4.54219075e+03	7.38894203e+02
0.56           	left	1.22579409e+02	1.54369669e+02	1.47409883e+02
0.56           	right	1.34998572e+02	2.16892229e+03	1.11471623e+03
0.56           	stlSurface	1.26579386e+01	3.85195381e+03	8.15957620e+02
0.56           	back	1.22489839e+02	4.59344864e+03	7.38221535e+02
0.56           	bottom	1.40732269e+01	6.47093461e+03	2.52202863e+03
0.56           	top	0.00000000e+00	2.14980055e+02	4.18873312e+01
0.56           	front	1.22488672e+02	4.59326974e+03	7.38214406e+02
0.58           	left	1.20591026e+02	1.53171068e+02	1.45810279e+02
0.58           	right	1.33531108e+02	2.13899894e+03	1.09348363e+03
0.58           	stlSurface	1.34653094e+01	3.60074574e+03	7.84437020e+02
0.58           	back	1.20503087e+02	4.65131572e+03	7.37659630e+02
0.58           	bottom	1.49708701e+01	7.32009346e+03	2.56753192e+03
0.58           	top	0.00000000e+00	2.09770069e+02	4.23936959e+01
0.58           	front	1.20501761e+02	4.65115431e+03	7.37649279e+02
0.6            	left	1.19413260e+02	1.52138290e+02	1.44429895e+02
0.6            	right	1.32152708e+02	2.10971321e+03	1.06238924e+03
0.6            	stlSurface	1.48175293e+01	3.43026373e+03	7.51662657e+02
0.6            	back	1.19327836e+02	4.69484969e+03	7.35127963e+02
0.6            	bottom	1.64742822e+01	8.12577875e+03	2.60097846e+03
0.6            	top	0.00000000e+00	2.24166314e+02	4.54148373e+01
0.6            	front	1.19324867e+02	4.69469407e+03	7.35117837e+02
0.62           	left	1.17708076e+02	1.57590395e+02	1.43767824e+02
0.62           	right	1.27360861e+02	2.08408647e+03	9.80836786e+02
0.62           	stlSurface	1.69780698e+01	3.30716261e+03	7.04472792e+02
0.62           	back	1.24170939e+02	4.72924962e+03	7.35216423e+02
0.62           	bottom	1.88763934e+01	7.75313902e+03	2.63056482e+03
0.62           	top	0.00000000e+00	2.15601823e+02	4.53614541e+01
0.62           	front	1.24167813e+02	4.72908200e+03	7.35203569e+02
0.64           	left	1.16157456e+02	2.33144624e+02	1.47060689e+02
0.64           	right	1.26509563e+02	2.05955730e+03	9.67918545e+02
0.64           	stlSurface	2.01675145e+01	3.21450401e+03	6.66126110e+02
0.64           	back	1.24342647e+02	4.77589534e+03	7.38875647e+02
0.64           	bottom	2.24224511e+01	8.35295750e+03	2.65350496e+03
0.64           	top	0.00000000e+00	2.28425830e+02	4.81895168e+01
0.64           	front	1.24341737e+02	4.77559817e+03	7.38861426e+02
0.66           	left	1.17054523e+02	2.21383089e+03	2.23043394e+02
0.66           	right	1.25699331e+02	2.03584250e+03	9.55105575e+02
0.66           	stlSurface	2.43015520e+01	3.13495074e+03	6.35355425e+02
0.66           	back	1.23060170e+02	4.82091793e+03	7.43454931e+02
0.66           	bottom	2.70187166e+01	8.30658777e+03	2.67859457e+03
0.66           	top	0.00000000e+00	2.18028034e+02	4.79179512e+01
0.66           	front	1.23059105e+02	4.82056171e+03	7.43434509e+02
0.68           	left	1.22091774e+02	5.97086530e+03	5.09067056e+02
0.68           	right	1.24923056e+02	2.01276375e+03	9.41938028e+02
0.68           	stlSurface	2.89272910e+01	3.06478587e+03	6.02571460e+02
0.68           	back	1.21740175e+02	4.85044719e+03	7.52088951e+02
0.68           	bottom	3.21616610e+01	7.89527874e+03	2.68974140e+03
0.68           	top	0.00000000e+00	2.28079276e+02	5.04233722e+01
0.68           	front	1.21739109e+02	4.85000822e+03	7.52051069e+02
0.7            	left	1.20841126e+02	6.78451195e+03	7.64369725e+02
0.7            	right	1.24174737e+02	1.99010489e+03	9.27267519e+02
0.7            	stlSurface	3.32550680e+01	3.00770751e+03	5.73160270e+02
0.7            	back	1.20460033e+02	4.86891939e+03	7.63078106e+02
0.7            	bottom	3.69733282e+01	7.83051131e+03	2.68747426e+03
0.7            	top	0.00000000e+00	2.37542410e+02	5.06034776e+01
0.7            	front	1.20459026e+02	4.86837920e+03	7.63033005e+02
0.72           	left	1.19648443e+02	7.28739588e+03	1.06027163e+03
0.72           	right	1.23444657e+02	1.96751171e+03	9.07039835e+02
0.72           	stlSurface	3.67715671e+01	2.96384444e+03	5.62639211e+02
0.72           	back	1.19253808e+02	4.87718324e+03	7.72405247e+02
0.72           	bottom	4.08830082e+01	7.84835752e+03	2.67149349e+03
0.72           	top	0.00000000e+00	2.24000030e+02	5.19894549e+01
0.72           	front	1.19252781e+02	4.87653721e+03	7.72356237e+02
0.74           	left	1.18548972e+02	7.55127527e+03	1.40080790e+03
0.74           	right	1.22724315e+02	1.94430592e+03	8.50536727e+02
0.74           	stlSurface	3.94281931e+01	2.93377722e+03	5.55257929e+02
0.74           	back	1.18148662e+02	4.85526717e+03	7.79099209e+02
0.74           	bottom	4.38366725e+01	7.85900611e+03	2.64771256e+03
0.74           	top	0.00000000e+00	2.33313259e+02	5.30403342e+01
0.74           	front	1.18147441e+02	4.85455094e+03	7.79036282e+02
0.76           	left	1.17568021e+02	7.67829824e+03	1.79118997e+03
0.76           	right	1.17989487e+02	1.91792191e+03	8.16195627e+02
0.76           	stlSurface	4.13654961e+01	2.91185528e+03	5.47276778e+02
0.76           	back	1.17171316e+02	4.79568744e+03	7.92292387e+02
0.76           	bottom	4.59905860e+01	7.80265653e+03	2.62721031e+03
0.76           	top	0.00000000e+00	2.21309021e+02	5.33318590e+01
0.76           	front	1.17169812e+02	4.79372066e+03	7.92206615e+02
0.78           	left	1.16773796e+02	7.72340047e+03	2.15054710e+03
0.78           	right	1.17698027e+02	1.89934173e+03	8.07055819e+02
0.78           	stlSurface	4.25284014e+01	2.89659413e+03	5.40241754e+02
0.78           	back	1.16380135e+02	5.28408004e+03	8.02236317e+02
0.78           	bottom	4.72835162e+01	7.74195722e+03	2.59423291e+03
0.78           	top	0.00000000e+00	2.34241840e+02	5.35102477e+01
0.78           	front	1.16378277e+02	5.28274538e+03	8.02137731e+02
0.8            	left	1.16241906e+02	7.72073778e+03	2.47752907e+03
0.8            	right	1.17386605e+02	1.88130983e+03	7.97610125e+02
0.8            	stlSurface	4.30003182e+01	2.88492039e+03	5.35546330e+02
0.8            	back	1.15850814e+02	5.64185507e+03	8.12878174e+02
0.8            	bottom	4.78081981e+01	7.63498890e+03	2.55591388e+03
0.8            	top	0.00000000e+00	2.27838759e+02	5.30687424e+01
0.8            	front	1.15848189e+02	5.64074190e+03	8.12806108e+02
0.82           	left	1.16462005e+02	7.73431196e+03	2.76629724e+03
0.82           	right	1.17054016e+02	1.86367976e+03	7.87152103e+02
0.82           	stlSurface	4.30094685e+01	2.87071020e+03	5.29969986e+02
0.82           	back	1.16073990e+02	5.86707350e+03	8.29393437e+02
0.82           	bottom	4.78183715e+01	7.48437947e+03	2.52932242e+03
0.82           	top	0.00000000e+00	2.14602912e+02	5.21127997e+01
0.82           	front	1.16067543e+02	5.86609036e+03	8.29297366e+02
0.84           	left	1.19973264e+02	7.67380142e+03	3.02214764e+03
0.84           	right	1.16691246e+02	1.84624242e+03	7.73591836e+02
0.84           	stlSurface	4.28497295e+01	2.85010843e+03	5.25235923e+02
0.84           	back	1.15922218e+02	6.37790914e+03	8.57680370e+02
0.84           	bottom	4.76407721e+01	7.30775786e+03	2.50329565e+03
0.84           	top	0.00000000e+00	8.82921060e+02	5.52798111e+01
0.84           	front	1.15922296e+02	6.37262035e+03	8.57556375e+02
0.86           	left	1.33766831e+02	7.51425360e+03	3.24746469e+03
0.86           	right	1.16289455e+02	1.82863130e+03	7.47104064e+02
0.86           	stlSurface	4.28120446e+01	2.82357136e+03	5.20856395e+02
0.86           	back	1.15523075e+02	6.95027767e+03	8.79801055e+02
0.86           	bottom	4.75988735e+01	7.11426016e+03	2.47731328e+03
0.86           	top	0.00000000e+00	9.40210759e+02	5.83908006e+01
0.86           	front	1.15523172e+02	6.94896040e+03	8.79621135e+02
0.88           	left	1.34908338e+02	7.30851661e+03	3.41850005e+03
0.88           	right	1.10916813e+02	1.80926923e+03	6.87248814e+02
0.88           	stlSurface	4.27677856e+01	2.79336656e+03	5.16980228e+02
0.88           	back	1.10185402e+02	7.20488812e+03	9.04202811e+02
0.88           	bottom	4.75376214e+01	6.97785856e+03	2.45460514e+03
0.88           	top	0.00000000e+00	1.00557561e+03	6.13566792e+01
0.88           	front	1.10185437e+02	7.20346665e+03	9.04070699e+02
0.9            	left	1.34653932e+02	7.09658165e+03	3.55834195e+03
0.9            	right	1.10912018e+02	1.78607455e+03	6.80646256e+02
0.9            	stlSurface	4.18132929e+01	2.76131523e+03	5.11550626e+02
0.9            	back	1.10180639e+02	7.24623370e+03	9.24138341e+02
0.9            	bottom	4.64684514e+01	7.03889537e+03	2.43616656e+03
0.9            	top	0.00000000e+00	1.09989762e+03	6.37566218e+01
0.9            	front	1.10180685e+02	7.24537215e+03	9.24026767e+02
0.92           	left	1.34716111e+02	6.88489543e+03	3.68052732e+03
0.92           	right	1.10847944e+02	1.76326729e+03	6.73917750e+02
0.92           	stlSurface	4.08822200e+01	2.72961458e+03	5.06440079e+02
0.92           	back	1.10116988e+02	7.16813875e+03	9.42092741e+02
0.92           	bottom	4.54206746e+01	7.01080614e+03	2.42225218e+03
0.92           	top	0.00000000e+00	1.12709685e+03	6.46365195e+01
0.92           	front	1.10117052e+02	7.16705923e+03	9.42003613e+02
0.94           	left	1.35521058e+02	6.68443866e+03	3.77050710e+03
0.94           	right	1.10730351e+02	1.74901652e+03	6.66795059e+02
0.94           	stlSurface	4.00567787e+01	2.69928541e+03	5.01902437e+02
0.94           	back	1.10000170e+02	7.02265432e+03	9.57827403e+02
0.94           	bottom	4.44804208e+01	7.15413930e+03	2.40660612e+03
0.94           	top	0.00000000e+00	1.08237589e+03	6.62326096e+01
0.94           	front	1.10000252e+02	7.02144171e+03	9.57763250e+02
0.96           	left	1.38867264e+02	6.51657150e+03	3.83015544e+03
0.96           	right	1.10559470e+02	1.73510045e+03	6.58698257e+02
0.96           	stlSurface	3.92634344e+01	2.67075526e+03	4.98018169e+02
0.96           	back	1.09830416e+02	7.20856117e+03	9.69447462e+02
0.96           	bottom	4.35994641e+01	7.30586464e+03	2.39410270e+03
0.96           	top	0.00000000e+00	9.81768386e+02	6.68445729e+01
0.96           	front	1.09830518e+02	7.20771981e+03	9.69434108e+02
0.98           	left	1.41174583e+02	6.37391499e+03	3.86319217e+03
0.98           	right	1.10328501e+02	1.72139051e+03	6.48061704e+02
0.98           	stlSurface	3.86545420e+01	2.64416791e+03	4.94391467e+02
0.98           	back	1.09600970e+02	7.37178317e+03	9.78526356e+02
0.98           	bottom	4.28827595e+01	7.37718376e+03	2.38762614e+03
0.98           	top	0.00000000e+00	8.79517272e+02	6.71683747e+01
0.98           	front	1.09601088e+02	7.37107237e+03	9.78508794e+02
1              	left	1.44775085e+02	6.26574436e+03	3.88395366e+03
1              	right	1.10029119e+02	1.70768244e+03	6.28853053e+02
1              	stlSurface	3.80799186e+01	2.61904217e+03	4.90871224e+02
1              	back	1.09303562e+02	7.48481913e+03	9.89430219e+02
1              	bottom	4.22452811e+01	7.38622198e+03	2.38350036e+03
1              	top	0.00000000e+00	8.09244690e+02	6.72238530e+01
1              	front	1.09303697e+02	7.48425546e+03	9.89466585e+02
1.02           	left	1.49456459e+02	6.20076825e+03	3.87321213e+03
1.02           	right	1.04058208e+02	1.69337001e+03	5.69724536e+02
1.02           	stlSurface	3.76305280e+01	2.59540128e+03	4.87980046e+02
1.02           	back	1.03371648e+02	7.53331149e+03	1.00223565e+03
1.02           	bottom	4.16003932e+01	7.35299490e+03	2.37866575e+03
1.02           	top	0.00000000e+00	6.99530651e+02	6.70497856e+01
1.02           	front	1.03371707e+02	7.53290188e+03	1.00228633e+03
1.04           	left	1.54837293e+02	6.14986175e+03	3.86424297e+03
1.04           	right	1.04133120e+02	1.67643704e+03	5.64895143e+02
1.04           	stlSurface	3.70569275e+01	2.57325601e+03	4.85922914e+02
1.04           	back	1.03446066e+02	7.79774640e+03	1.01801805e+03
1.04           	bottom	4.04503019e+01	7.30812842e+03	2.37293186e+03
1.04           	top	0.00000000e+00	6.33056025e+02	6.70584328e+01
1.04           	front	1.03446127e+02	7.79854108e+03	1.01804332e+03
1.06           	left	1.60574258e+02	6.10410793e+03	3.82943682e+03
1.06           	right	1.04139734e+02	1.65709464e+03	5.60022455e+02
1.06           	stlSurface	3.61935643e+01	2.55196655e+03	4.83226655e+02
1.06           	back	1.03452636e+02	8.32008023e+03	1.03293317e+03
1.06           	bottom	3.96209698e+01	7.23940433e+03	2.37143503e+03
1.06           	top	0.00000000e+00	1.07405183e+03	7.24744581e+01
1.06           	front	1.03452721e+02	8.32043571e+03	1.03287548e+03
1.08           	left	1.66306007e+02	6.05916886e+03	3.78172058e+03
1.08           	right	1.04077208e+02	1.63344289e+03	5.55014786e+02
1.08           	stlSurface	3.61294268e+01	2.53096428e+03	4.82218257e+02
1.08           	back	1.03390523e+02	9.02174535e+03	1.04585267e+03
1.08           	bottom	3.95858319e+01	7.13451641e+03	2.37457717e+03
1.08           	top	0.00000000e+00	9.82372567e+02	7.05519185e+01
1.08           	front	1.03390627e+02	9.02254917e+03	1.04579231e+03
1.1            	left	1.71619921e+02	6.01503089e+03	3.71655514e+03
1.1            	right	1.03954324e+02	1.61346520e+03	5.49717028e+02
1.1            	stlSurface	3.75577453e+01	2.50964215e+03	4.81727780e+02
1.1            	back	1.03268450e+02	9.60473274e+03	1.05035879e+03
1.1            	bottom	4.06188106e+01	6.99194844e+03	2.37721399e+03
1.1            	top	0.00000000e+00	8.85629468e+02	7.02869351e+01
1.1            	front	1.03268556e+02	9.60463838e+03	1.05034871e+03
1.12           	left	1.75992754e+02	5.97247125e+03	3.64213942e+03
1.12           	right	1.03771744e+02	1.60210358e+03	5.43837167e+02
1.12           	stlSurface	4.15914008e+01	2.48648327e+03	4.81468329e+02
1.12           	back	1.03087074e+02	9.87979128e+03	1.06298082e+03
1.12           	bottom	4.39583492e+01	6.81512040e+03	2.38955825e+03
1.12           	top	0.00000000e+00	8.07810694e+02	7.01279355e+01
1.12           	front	1.03087194e+02	9.87930786e+03	1.06298409e+03
1.14           	left	1.78909413e+02	5.93481876e+03	3.55679356e+03
1.14           	right	1.03526809e+02	1.59096594e+03	5.36742766e+02
1.14           	stlSurface	5.59424492e+01	2.45615271e+03	4.81887007e+02
1.14           	back	1.02843755e+02	1.04200512e+04	1.05287634e+03
1.14           	bottom	5.68443090e+01	7.80234446e+03	2.41782819e+03
1.14           	top	0.00000000e+00	7.53633658e+02	7.12732218e+01
1.14           	front	1.02843876e+02	1.04198935e+04	1.05308204e+03
1.16           	left	1.80131023e+02	5.91497101e+03	3.49648888e+03
1.16           	right	1.03215942e+02	1.57997790e+03	5.26776450e+02
1.16           	stlSurface	5.49410213e+01	2.40470783e+03	5.21328021e+02
1.16           	back	1.02534939e+02	1.07422251e+04	1.05830703e+03
1.16           	bottom	6.12495232e+01	9.18334879e+03	2.47951581e+03
1.16           	top	0.00000000e+00	7.19284889e+02	6.94905109e+01
1.16           	front	1.02535060e+02	1.07405914e+04	1.05871323e+03
1.18           	left	1.79661431e+02	5.94622489e+03	3.43010079e+03
1.18           	right	1.02830824e+02	1.56902415e+03	5.07931093e+02
1.18           	stlSurface	5.37923398e+01	2.41947506e+03	6.26847614e+02
1.18           	back	1.02152362e+02	1.07261376e+04	1.05980835e+03
1.18           	bottom	5.99689412e+01	1.01715274e+04	2.54227634e+03
1.18           	top	0.00000000e+00	6.96934468e+02	6.70960930e+01
1.18           	front	1.02152489e+02	1.07236159e+04	1.06053167e+03
1.2            	left	1.77888604e+02	6.04491353e+03	3.36290518e+03
1.2            	right	9.64817065e+01	1.55765038e+03	4.59793565e+02
1.2            	stlSurface	5.68297738e+01	3.32622377e+03	7.97855907e+02
1.2            	back	9.58448495e+01	1.09502792e+04	1.07450673e+03
1.2            	bottom	6.33551427e+01	1.03798703e+04	2.60532583e+03
1.2            	top	0.00000000e+00	6.83276141e+02	6.48090407e+01
1.2            	front	9.58449187e+01	1.09493018e+04	1.07572306e+03
1.22           	left	1.94920467e+02	6.17967088e+03	3.26708686e+03
1.22           	right	9.64555715e+01	1.54476943e+03	4.56259103e+02
1.22           	stlSurface	5.76706210e+01	3.94531738e+03	1.02439112e+03
1.22           	back	9.58188869e+01	1.14323317e+04	1.08469290e+03
1.22           	bottom	6.42925441e+01	1.03190286e+04	2.64516670e+03
1.22           	top	0.00000000e+00	6.32109926e+02	6.79753767e+01
1.22           	front	9.58189526e+01	1.14317374e+04	1.08646010e+03
1.24           	left	2.12902916e+02	6.32445985e+03	3.22913149e+03
1.24           	right	9.64030295e+01	1.53093408e+03	4.52727249e+02
1.24           	stlSurface	5.63265159e+01	4.76954757e+03	1.13296261e+03
1.24           	back	9.57666917e+01	1.13681817e+04	1.09334731e+03
1.24           	bottom	6.28248816e+01	1.02774330e+04	2.66452022e+03
1.24           	top	0.00000000e+00	7.04791543e+02	7.70866785e+01
1.24           	front	9.57667508e+01	1.13686588e+04	1.09559546e+03
1.26           	left	2.23138772e+02	6.53043460e+03	3.15146066e+03
1.26           	right	9.62970748e+01	1.51558526e+03	4.49168982e+02
1.26           	stlSurface	5.34220525e+01	4.04743692e+03	1.08350535e+03
1.26           	back	9.56614364e+01	1.10536606e+04	1.09790267e+03
1.26           	bottom	5.95432896e+01	1.01441990e+04	2.66735383e+03
1.26           	top	0.00000000e+00	6.75480339e+02	8.16705992e+01
1.26           	front	9.56614916e+01	1.10535769e+04	1.10058580e+03
1.28           	left	2.36454111e+02	6.66550817e+03	3.09777318e+03
1.28           	right	9.61363752e+01	1.49793064e+03	4.45545330e+02
1.28           	stlSurface	5.20942244e+01	3.53275725e+03	1.03097910e+03